
                                 *****************
                                 * O   R   C   A *
                                 *****************

           --- An Ab Initio, DFT and Semiempirical electronic structure package ---

                  #######################################################
                  #                        -***-                        #
                  #  Department of molecular theory and spectroscopy    #
                  #              Directorship: Frank Neese              #
                  # Max Planck Institute for Chemical Energy Conversion #
                  #                  D-45470 Muelheim/Ruhr              #
                  #                       Germany                       #
                  #                                                     #
                  #                  All rights reserved                #
                  #                        -***-                        #
                  #######################################################


                         Program Version 4.0.1.2 - RELEASE -


 With contributions from (in alphabetic order):
   Daniel Aravena         : Magnetic Properties
   Michael Atanasov       : Ab Initio Ligand Field Theory
   Ute Becker             : Parallelization
   Martin Brehm           : Molecular dynamics
   Dmytro Bykov           : SCF Hessian
   Vijay G. Chilkuri      : MRCI spin determinant printing
   Dipayan Datta          : RHF DLPNO-CCSD density
   Achintya Kumar Dutta   : EOM-CC, STEOM-CC
   Dmitry Ganyushin       : Spin-Orbit,Spin-Spin,Magnetic field MRCI
   Yang Guo               : DLPNO-NEVPT2, CIM, IAO-localization
   Andreas Hansen         : Spin unrestricted coupled pair/coupled cluster methods
   Lee Huntington         : MR-EOM, pCC
   Robert Izsak           : Overlap fitted RIJCOSX, COSX-SCS-MP3, EOM
   Christian Kollmar      : KDIIS, OOCD, Brueckner-CCSD(T), CCSD density
   Simone Kossmann        : Meta GGA functionals, TD-DFT gradient, OOMP2, MP2 Hessian
   Martin Krupicka        : AUTO-CI
   Dagmar Lenk            : GEPOL surface
   Dimitrios Liakos       : Extrapolation schemes; parallel MDCI
   Dimitrios Manganas     : ROCIS; embedding schemes
   Dimitrios Pantazis     : SARC Basis sets
   Taras Petrenko         : DFT Hessian,TD-DFT gradient, ASA, ECA, R-Raman, ABS, FL, XAS/XES, NRVS
   Peter Pinski           : DLPNO-MP2
   Christoph Reimann      : Effective Core Potentials
   Marius Retegan         : Local ZFS, SOC
   Christoph Riplinger    : Optimizer, TS searches, QM/MM, DLPNO-CCSD(T), (RO)-DLPNO pert. Triples
   Tobias Risthaus        : Range-separated hybrids, TD-DFT gradient, RPA, STAB
   Michael Roemelt        : Restricted open shell CIS
   Masaaki Saitow         : Open-shell DLPNO
   Barbara Sandhoefer     : DKH picture change effects
   Kantharuban Sivalingam : CASSCF convergence, NEVPT2, FIC-MRCI
   Georgi Stoychev        : AutoAux
   Boris Wezisla          : Elementary symmetry handling
   Frank Wennmohs         : Technical directorship


 We gratefully acknowledge several colleagues who have allowed us to
 interface, adapt or use parts of their codes:
   Stefan Grimme, W. Hujo, H. Kruse,             : VdW corrections, initial TS optimization,
                  C. Bannwarth                     DFT functionals, gCP, sTDA/sTD-DF
   Ed Valeev                                     : LibInt (2-el integral package), F12 methods
   Garnet Chan, S. Sharma, J. Yang, R. Olivares  : DMRG
   Ulf Ekstrom                                   : XCFun DFT Library
   Mihaly Kallay                                 : mrcc  (arbitrary order and MRCC methods)
   Andreas Klamt, Michael Diedenhofen            : otool_cosmo (COSMO solvation model)
   Jiri Pittner, Ondrej Demel                    : Mk-CCSD
   Frank Weinhold                                : gennbo (NPA and NBO analysis)
   Christopher J. Cramer and Donald G. Truhlar   : smd solvation model


 Your calculation uses the libint2 library for the computation of 2-el integrals
 For citations please refer to: http://libint.valeyev.net

 This ORCA versions uses:
   CBLAS   interface :  Fast vector & matrix operations
   LAPACKE interface :  Fast linear algebra routines
   SCALAPACK package :  Parallel linear algebra routines


Your calculation utilizes the geometrical counterpoise correction gCP
Please cite in your paper:
H.Kruse, S. Grimme J.Chem.Phys., 136, (2012), 154101 
   

Your calculation utilizes the atom-pairwise dispersion correction
with the Becke-Johnson damping scheme (D3BJ)
Cite in your paper:
S.Grimme, S.Ehrlich, L.Goerigk, J Comput Chem, (2011), 32, 1456–1465 
S.Grimme, J.Antony, S.Ehrlich and H.Krieg, J.Chem.Phys., 132, (2010), 154104 
   

Your calculation employs the composite approach PBEh-3c.
Please cite in your paper:
S. Grimme, J. G. Brandenburg, C. Bannwarth, A. Hansen J.Chem.Phys., 143, (2015), 054107 
   

Your calculation utilizes the basis: def2-mSVP

Your calculation utilizes the auxiliary basis: def2/J
   F. Weigend, Phys. Chem. Chem. Phys. 8, 1057 (2006).

================================================================================
                                        WARNINGS
                       Please study these warnings very carefully!
================================================================================

Warning: TCutStore was < 0. Adjusted to Thresh (uncritical)

WARNING: Split-RI-J cannot be used together with RIJONX
  ===> : Split-RI-J will be disabled

WARNING: Geometry Optimization
  ===> : Switching off AutoStart
         For restart on a previous wavefunction, please use MOREAD

INFO   : the flag for use of LIBINT has been found!

================================================================================
                                       INPUT FILE
================================================================================
NAME = ammonia.inp
|  1> ! PBEh3c OptTS Freq
|  2> 
|  3> * xyz 0 1
|  4> N        0.000000000      0.000000000      0.000000000
|  5> H        0.854124880      0.391785031      0.000000000
|  6> H       -0.766358230      0.543801328      0.000000000
|  7> H       -0.087766650     -0.935586361      0.000000000
|  8> *
|  9> %pal
| 10>  nprocs 4
| 11> end
| 12> 
| 13>                          ****END OF INPUT****
================================================================================

                       *****************************
                       * Geometry Optimization Run *
                       *****************************

Geometry optimization settings:
Update method            Update   .... Bofill
Choice of coordinates    CoordSys .... Redundant Internals
Initial Hessian          InHess   .... Almoef's Model

Convergence Tolerances:
Energy Change            TolE     ....  5.0000e-06 Eh
Max. Gradient            TolMAXG  ....  3.0000e-04 Eh/bohr
RMS Gradient             TolRMSG  ....  1.0000e-04 Eh/bohr
Max. Displacement        TolMAXD  ....  4.0000e-03 bohr
RMS Displacement         TolRMSD  ....  2.0000e-03 bohr

------------------------------------------------------------------------------
                        ORCA OPTIMIZATION COORDINATE SETUP
------------------------------------------------------------------------------

The optimization will be done in new redundant internal coordinates
Making redundant internal coordinates   ...  (new redundants) done
Following TS mode number                ...     0
Evaluating the initial hessian          ...  (Almloef) done
Evaluating the coordinates              ...  done
Calculating the B-matrix                .... done
Calculating the G-matrix                .... done
Diagonalizing the G-matrix              .... done
The first mode is                       ....    1
The number of degrees of freedom        ....    6

    -----------------------------------------------------------------
                    Redundant Internal Coordinates


    -----------------------------------------------------------------
         Definition                    Initial Value    Approx d2E/dq
    -----------------------------------------------------------------
      1. B(H   1,N   0)                  0.9397         0.560227   
      2. B(H   2,N   0)                  0.9397         0.560227   
      3. B(H   3,N   0)                  0.9397         0.560227   
      4. A(H   1,N   0,H   3)          120.0000         0.329830   
      5. A(H   2,N   0,H   3)          120.0000         0.329830   
      6. A(H   1,N   0,H   2)          120.0000         0.329830   
      7. I(H   1,H   3,H   2,N   0)      0.0000         0.039166   
    -----------------------------------------------------------------

Number of atoms                         .... 4
Number of degrees of freedom            .... 7

         *************************************************************
         *                GEOMETRY OPTIMIZATION CYCLE   1            *
         *************************************************************
---------------------------------
CARTESIAN COORDINATES (ANGSTROEM)
---------------------------------
  N      0.000000    0.000000    0.000000
  H      0.854125    0.391785    0.000000
  H     -0.766358    0.543801    0.000000
  H     -0.087767   -0.935586    0.000000

----------------------------
CARTESIAN COORDINATES (A.U.)
----------------------------
  NO LB      ZA    FRAG     MASS         X           Y           Z
   0 N     7.0000    0    14.007    0.000000    0.000000    0.000000
   1 H     1.0000    0     1.008    1.614062    0.740366    0.000000
   2 H     1.0000    0     1.008   -1.448207    1.027636    0.000000
   3 H     1.0000    0     1.008   -0.165855   -1.768002    0.000000

--------------------------------
INTERNAL COORDINATES (ANGSTROEM)
--------------------------------
 N      0   0   0     0.000000000000     0.00000000     0.00000000
 H      1   0   0     0.939694003998     0.00000000     0.00000000
 H      1   2   0     0.939694003931   120.00000004     0.00000000
 H      1   2   3     0.939694005377   119.99999997   180.00000085

---------------------------
INTERNAL COORDINATES (A.U.)
---------------------------
 N      0   0   0     0.000000000000     0.00000000     0.00000000
 H      1   0   0     1.775764317245     0.00000000     0.00000000
 H      1   2   0     1.775764317117   120.00000004     0.00000000
 H      1   2   3     1.775764319850   119.99999997   180.00000085

---------------------
BASIS SET INFORMATION
---------------------
There are 2 groups of distinct atoms

 Group   1 Type N   : 8s4p1d contracted to 4s2p1d pattern {5111/31/1}
 Group   2 Type H   : 4s contracted to 2s pattern {31}

Atom   0N    basis set group =>   1
Atom   1H    basis set group =>   2
Atom   2H    basis set group =>   2
Atom   3H    basis set group =>   2
-------------------------------
AUXILIARY BASIS SET INFORMATION
-------------------------------
There are 2 groups of distinct atoms

 Group   1 Type N   : 12s5p4d2f1g contracted to 6s4p3d1f1g pattern {711111/2111/211/2/1}
 Group   2 Type H   : 5s2p1d contracted to 3s1p1d pattern {311/2/1}

Atom   0N    basis set group =>   1
Atom   1H    basis set group =>   2
Atom   2H    basis set group =>   2
Atom   3H    basis set group =>   2


           ************************************************************
           *        Program running with 4 parallel MPI-processes     *
           *              working on a common directory               *
           ************************************************************
------------------------------------------------------------------------------
                           ORCA GTO INTEGRAL CALCULATION
                           -- RI-GTO INTEGRALS CHOSEN --
------------------------------------------------------------------------------

                         BASIS SET STATISTICS AND STARTUP INFO

Gaussian basis set:
 # of primitive gaussian shells          ...   25
 # of primitive gaussian functions       ...   37
 # of contracted shells                  ...   13
 # of contracted basis functions         ...   21
 Highest angular momentum                ...    2
 Maximum contraction depth               ...    5
Auxiliary gaussian basis set:
 # of primitive gaussian shells          ...   48
 # of primitive gaussian functions       ...  118
 # of contracted shells                  ...   30
 # of contracted aux-basis functions     ...   82
 Highest angular momentum                ...    4
 Maximum contraction depth               ...    7
Ratio of auxiliary to basis functions    ...  3.90
Integral package used                  ... LIBINT
 One Electron integrals                  ... done
 Ordering auxiliary basis shells         ... done
 Integral threshhold             Thresh  ...  2.500e-11
 Primitive cut-off               TCut    ...  2.500e-12
 Pre-screening matrix                    ... done
 Shell pair data                         ... 
 Ordering of the shell pairs             ... done (   0.000 sec) 91 of 91 pairs
 Determination of significant pairs      ... done (   0.000 sec)
 Creation of shell pair data             ... done (   0.000 sec)
 Storage of shell pair data              ... done (   0.000 sec)
 Shell pair data done in (   0.000 sec)
 Computing two index integrals           ... done
 Cholesky decomposition of the V-matrix  ... done


Timings:
 Total evaluation time                   ...   0.374 sec (  0.006 min)
 One electron matrix time                ...   0.044 sec (  0.001 min) = 11.8%
 Schwartz matrix evaluation time         ...   0.223 sec (  0.004 min) = 59.7%
 Two index repulsion integral time       ...   0.001 sec (  0.000 min) =  0.2%
 Cholesky decomposition of V             ...   0.083 sec (  0.001 min) = 22.1%
 Three index repulsion integral time     ...   0.000 sec (  0.000 min) =  0.0%



           ************************************************************
           *        Program running with 4 parallel MPI-processes     *
           *              working on a common directory               *
           ************************************************************
-------------------------------------------------------------------------------
                                 ORCA SCF
-------------------------------------------------------------------------------

------------
SCF SETTINGS
------------
Hamiltonian:
 Density Functional     Method          .... DFT(GTOs)
 Exchange Functional    Exchange        .... PBE
   PBE kappa parameter   XKappa         ....  1.024500
   PBE mue parameter    XMuePBE         ....  0.123457
 Correlation Functional Correlation     .... PBE
   PBE beta parameter  CBetaPBE         ....  0.030000
 LDA part of GGA corr.  LDAOpt          .... PW91-LDA
 Gradients option       PostSCFGGA      .... off
 Hybrid DFT is turned on
   Fraction HF Exchange ScalHFX         ....  0.420000
   Scaling of DF-GGA-X  ScalDFX         ....  0.580000
   Scaling of DF-GGA-C  ScalDFC         ....  1.000000
   Scaling of DF-LDA-C  ScalLDAC        ....  1.000000
   Perturbative correction              ....  0.000000
 RI-approximation to the Coulomb term is turned on
   Number of auxiliary basis functions  .... 82
   RIJ-ON(X) (HFX calculated with O(N)) .... on


General Settings:
 Integral files         IntName         .... ammonia
 Hartree-Fock type      HFTyp           .... RHF
 Total Charge           Charge          ....    0
 Multiplicity           Mult            ....    1
 Number of Electrons    NEL             ....   10
 Basis Dimension        Dim             ....   21
 Nuclear Repulsion      ENuc            ....     12.8012769354 Eh

Convergence Acceleration:
 DIIS                   CNVDIIS         .... on
   Start iteration      DIISMaxIt       ....    12
   Startup error        DIISStart       ....  0.200000
   # of expansion vecs  DIISMaxEq       ....     5
   Bias factor          DIISBfac        ....   1.050
   Max. coefficient     DIISMaxC        ....  10.000
 Newton-Raphson         CNVNR           .... off
 SOSCF                  CNVSOSCF        .... on
   Start iteration      SOSCFMaxIt      ....   150
   Startup grad/error   SOSCFStart      ....  0.003300
 Level Shifting         CNVShift        .... on
   Level shift para.    LevelShift      ....    0.2500
   Turn off err/grad.   ShiftErr        ....    0.0010
 Zerner damping         CNVZerner       .... off
 Static damping         CNVDamp         .... on
   Fraction old density DampFac         ....    0.7000
   Max. Damping (<1)    DampMax         ....    0.9800
   Min. Damping (>=0)   DampMin         ....    0.0000
   Turn off err/grad.   DampErr         ....    0.1000
 Fernandez-Rico         CNVRico         .... off

SCF Procedure:
 Maximum # iterations   MaxIter         ....   125
 SCF integral mode      SCFMode         .... Direct
   Integral package                     .... LIBINT
 Reset frequeny         DirectResetFreq ....    20
 Integral Threshold     Thresh          ....  2.500e-11 Eh
 Primitive CutOff       TCut            ....  2.500e-12 Eh

Convergence Tolerance:
 Convergence Check Mode ConvCheckMode   .... Total+1el-Energy
 Convergence forced     ConvForced      .... 0
 Energy Change          TolE            ....  1.000e-08 Eh
 1-El. energy change                    ....  1.000e-05 Eh
 Orbital Gradient       TolG            ....  1.000e-05
 Orbital Rotation angle TolX            ....  1.000e-05
 DIIS Error             TolErr          ....  5.000e-07


Diagonalization of the overlap matrix:
Smallest eigenvalue                        ... 3.898e-02
Time for diagonalization                   ...    0.115 sec
Threshold for overlap eigenvalues          ... 1.000e-08
Number of eigenvalues below threshold      ... 0
Time for construction of square roots      ...    0.010 sec
Total time needed                          ...    0.126 sec

--------------------------------
INITIAL GUESS: MINIMAL BASIS EHT
--------------------------------
The minimal basis has 8 functions
EHT matrix was diagonalized
Basis set overlap was calculated now projecting the orbitals
Using GuessMode=FMatrix for the initial guess
C*T matrix was formed
Effective Fockian was calculated
Effective Fockian was diagonalized
Initial density was built
                      ------------------
                      INITIAL GUESS DONE
                      ------------------
-------------------
DFT GRID GENERATION
-------------------

General Integration Accuracy     IntAcc      ...  4.340
Radial Grid Type                 RadialGrid  ... Gauss-Chebyshev
Angular Grid (max. acc.)         AngularGrid ... Lebedev-194
Angular grid pruning method      GridPruning ... 3 (G Style)
Weight generation scheme         WeightScheme... Becke
Basis function cutoff            BFCut       ...    1.0000e-11
Integration weight cutoff        WCut        ...    1.0000e-14
Grids for H and He will be reduced by one unit

# of grid points (after initial pruning)     ...   7924 (   0.0 sec)
# of grid points (after weights+screening)   ...   7793 (   0.0 sec)
nearest neighbour list constructed           ...    0.0 sec
Grid point re-assignment to atoms done       ...    0.0 sec
Grid point division into batches done        ...    0.0 sec
Reduced shell lists constructed in    0.0 sec

Total number of grid points                  ...     7793
Total number of batches                      ...      123
Average number of points per batch           ...       63
Average number of grid points per atom       ...     1948
Average number of shells per batch           ...    11.41 (87.74%)
Average number of basis functions per batch  ...    18.59 (88.54%)
Average number of large shells per batch     ...    10.56 (92.60%)
Average number of large basis fcns per batch ...    16.94 (91.09%)
Maximum spatial batch extension              ...  13.42, 14.31, 17.36 au
Average spatial batch extension              ...   0.87,  0.91,  1.17 au

Time for grid setup =    0.082 sec

--------------
SCF ITERATIONS
--------------
ITER       Energy         Delta-E        Max-DP      RMS-DP      [F,P]     Damp
               ***  Starting incremental Fock matrix formation  ***
  0    -56.2706915089   0.000000000000 0.16508188  0.01038591  0.3849578 0.7000
  1    -56.3150431929  -0.044351684005 0.10456183  0.00657073  0.2619210 0.7000
                               ***Turning on DIIS***
  2    -56.3427646979  -0.027721505012 0.06583162  0.00417309  0.1810877 0.7000
  3    -56.3620748085  -0.019310110593 0.04159297  0.00287357  0.1257427 0.7000
  4    -56.3758702189  -0.013795410365 0.11017809  0.00747608  0.0884377 0.0000
  5    -56.4095870361  -0.033716817248 0.01052052  0.00070880  0.0101968 0.0000
                      *** Initiating the SOSCF procedure ***
                           *** Shutting down DIIS ***
                      *** Re-Reading the Fockian *** 
                      *** Removing any level shift *** 
ITER      Energy       Delta-E        Grad      Rot      Max-DP    RMS-DP
  6    -56.40963576  -0.0000487196  0.000810  0.000810  0.001379  0.000132
               *** Restarting incremental Fock matrix formation ***
  7    -56.40964534  -0.0000095815  0.000360  0.000447  0.000864  0.000093
  8    -56.40964608  -0.0000007400  0.000442  0.000283  0.000675  0.000048
  9    -56.40964650  -0.0000004194  0.000014  0.000013  0.000030  0.000003
                 **** Energy Check signals convergence ****
              ***Rediagonalizing the Fockian in SOSCF/NRSCF***

               *****************************************************
               *                     SUCCESS                       *
               *           SCF CONVERGED AFTER  10 CYCLES          *
               *****************************************************


----------------
TOTAL SCF ENERGY
----------------

Total Energy       :          -56.40964650 Eh           -1534.98452 eV

Components:
Nuclear Repulsion  :           12.80127694 Eh             348.34045 eV
Electronic Energy  :          -69.21092343 Eh           -1883.32497 eV
One Electron Energy:         -101.30427468 Eh           -2756.62946 eV
Two Electron Energy:           32.09335124 Eh             873.30449 eV

Virial components:
Potential Energy   :         -112.78148199 Eh           -3068.94015 eV
Kinetic Energy     :           56.37183550 Eh            1533.95563 eV
Virial Ratio       :            2.00067074


DFT components:
N(Alpha)           :        4.999939389391 electrons
N(Beta)            :        4.999939389391 electrons
N(Total)           :        9.999878778781 electrons
E(X)               :       -4.333858507062 Eh       
E(C)               :       -0.426107995064 Eh       
E(XC)              :       -4.759966502125 Eh       

---------------
SCF CONVERGENCE
---------------

  Last Energy change         ...   -4.9777e-10  Tolerance :   1.0000e-08
  Last MAX-Density change    ...    1.1984e-06  Tolerance :   1.0000e-07
  Last RMS-Density change    ...    1.0508e-07  Tolerance :   5.0000e-09
  Last Orbital Gradient      ...    7.1173e-07  Tolerance :   1.0000e-05
  Last Orbital Rotation      ...    4.1941e-07  Tolerance :   1.0000e-05

             **** THE GBW FILE WAS UPDATED (ammonia.gbw) ****
             **** DENSITY FILE WAS UPDATED (ammonia.scfp.tmp) ****
             **** ENERGY FILE WAS UPDATED (ammonia.en.tmp) ****
----------------
ORBITAL ENERGIES
----------------

  NO   OCC          E(Eh)            E(eV) 
   0   2.0000     -14.562892      -396.2764 
   1   2.0000      -0.939716       -25.5710 
   2   2.0000      -0.550333       -14.9753 
   3   2.0000      -0.550294       -14.9743 
   4   2.0000      -0.275519        -7.4973 
   5   0.0000       0.171322         4.6619 
   6   0.0000       0.255147         6.9429 
   7   0.0000       0.255185         6.9439 
   8   0.0000       0.774711        21.0810 
   9   0.0000       0.775344        21.0982 
  10   0.0000       0.817679        22.2502 
  11   0.0000       0.945314        25.7233 
  12   0.0000       1.134542        30.8725 
  13   0.0000       1.134578        30.8734 
  14   0.0000       1.423320        38.7305 
  15   0.0000       1.753817        47.7238 
  16   0.0000       1.753921        47.7266 
  17   0.0000       2.325801        63.2883 
  18   0.0000       2.519009        68.5457 
  19   0.0000       2.519271        68.5529 
  20   0.0000      19.041094       518.1345 

                    ********************************
                    * MULLIKEN POPULATION ANALYSIS *
                    ********************************

-----------------------
MULLIKEN ATOMIC CHARGES
-----------------------
   0 N :   -1.015319
   1 H :    0.338456
   2 H :    0.338339
   3 H :    0.338523
Sum of atomic charges:   -0.0000000

--------------------------------
MULLIKEN REDUCED ORBITAL CHARGES
--------------------------------
  0 N s       :     3.513550  s :     3.513550
      pz      :     2.000000  p :     4.481601
      px      :     1.240665
      py      :     1.240935
      dz2     :     0.005505  d :     0.020168
      dxz     :     0.000000
      dyz     :     0.000000
      dx2y2   :     0.007334
      dxy     :     0.007329
  1 H s       :     0.661544  s :     0.661544
  2 H s       :     0.661661  s :     0.661661
  3 H s       :     0.661477  s :     0.661477


                     *******************************
                     * LOEWDIN POPULATION ANALYSIS *
                     *******************************

----------------------
LOEWDIN ATOMIC CHARGES
----------------------
   0 N :   -0.668389
   1 H :    0.222796
   2 H :    0.222770
   3 H :    0.222824

-------------------------------
LOEWDIN REDUCED ORBITAL CHARGES
-------------------------------
  0 N s       :     3.145406  s :     3.145406
      pz      :     2.000000  p :     4.488968
      px      :     1.244445
      py      :     1.244524
      dz2     :     0.004899  d :     0.034016
      dxz     :     0.000000
      dyz     :     0.000000
      dx2y2   :     0.014557
      dxy     :     0.014560
  1 H s       :     0.777204  s :     0.777204
  2 H s       :     0.777230  s :     0.777230
  3 H s       :     0.777176  s :     0.777176


                      *****************************
                      * MAYER POPULATION ANALYSIS *
                      *****************************

  NA   - Mulliken gross atomic population
  ZA   - Total nuclear charge
  QA   - Mulliken gross atomic charge
  VA   - Mayer's total valence
  BVA  - Mayer's bonded valence
  FA   - Mayer's free valence

  ATOM       NA         ZA         QA         VA         BVA        FA
  0 N      8.0153     7.0000    -1.0153     2.6080     2.6080    -0.0000
  1 H      0.6615     1.0000     0.3385     0.8620     0.8620    -0.0000
  2 H      0.6617     1.0000     0.3383     0.8621     0.8621    -0.0000
  3 H      0.6615     1.0000     0.3385     0.8620     0.8620     0.0000

  Mayer bond orders larger than 0.1
B(  0-N ,  1-H ) :   0.8693 B(  0-N ,  2-H ) :   0.8694 B(  0-N ,  3-H ) :   0.8693 


-------
TIMINGS
-------

Total SCF time: 0 days 0 hours 0 min 3 sec 

Total time                  ....       3.082 sec
Sum of individual times     ....       2.943 sec  ( 95.5%)

Fock matrix formation       ....       2.765 sec  ( 89.7%)
  XC integration            ....       0.220 sec  (  8.0% of F)
    Basis function eval.    ....       0.028 sec  ( 12.6% of XC)
    Density eval.           ....       0.015 sec  (  6.6% of XC)
    XC-Functional eval.     ....       0.088 sec  ( 40.1% of XC)
    XC-Potential eval.      ....       0.010 sec  (  4.6% of XC)
Diagonalization             ....       0.002 sec  (  0.1%)
Density matrix formation    ....       0.005 sec  (  0.1%)
Population analysis         ....       0.041 sec  (  1.3%)
Initial guess               ....       0.010 sec  (  0.3%)
Orbital Transformation      ....       0.000 sec  (  0.0%)
Orbital Orthonormalization  ....       0.000 sec  (  0.0%)
DIIS solution               ....       0.017 sec  (  0.6%)
SOSCF solution              ....       0.021 sec  (  0.7%)
Grid generation             ....       0.082 sec  (  2.7%)


-------------------------------------------------------------------------------
                          DFT DISPERSION CORRECTION                            
                                                                               
                              DFTD3 V3.1  Rev 1                                
                          USING Becke-Johnson damping                          
-------------------------------------------------------------------------------
The PBEh-3c composite method is recognized
Using three-body term ABC
Active option DFTDOPT                   ...         4   

molecular C6(AA) [au] = 84.632796 


            DFT-D V3
 parameters
 s6 scaling factor         :     1.0000 
 a1 scaling factor         :     0.4860 
 s8 scaling factor         :     0.0000 
 a2 scaling factor         :     4.5000 
 Damping factor alpha9(ATM):    16.0000 
 ad hoc parameters k1-k3   :    16.0000     1.3333    -4.0000 

 Edisp/kcal,au: -0.278872782353  -0.000444412019 
 E6   /kcal   :  -0.278875638 
 E8   /kcal   :  -0.000000000 
 E6(ABC)      :   0.000002856 
 % E8         :   0.000000000 
 % E6(ABC)    :  -0.001024134 

-------------------------   ----------------
Dispersion correction           -0.000444412
-------------------------   ----------------

------------------   -----------------
gCP correction             0.000728899
------------------   -----------------

-------------------------   --------------------
FINAL SINGLE POINT ENERGY       -56.409362010231
-------------------------   --------------------



           ************************************************************
           *        Program running with 4 parallel MPI-processes     *
           *              working on a common directory               *
           ************************************************************
------------------------------------------------------------------------------
                         ORCA SCF GRADIENT CALCULATION
------------------------------------------------------------------------------

Gradient of the Kohn-Sham DFT energy:
Kohn-Sham wavefunction type      ... RKS
Hartree-Fock exchange scaling    ...    0.420
Number of operators              ...    1
Number of atoms                  ...    4
Basis set dimensions             ...   21
Integral neglect threshold       ... 2.5e-11
Integral primitive cutoff        ... 2.5e-12

Nuclear repulsion gradient       ... done
One Electron Gradient            ... done
Pre-screening matrix             ... done
Starting the two electron gradient:
Will do only exchange terms
Two electron gradient done
RI-J gradient                    ... done
Exchange-correlation gradient    ... done
Dispersion correction            ... done
gCP correction                   ... done

------------------
CARTESIAN GRADIENT
------------------

   1   N   :   -0.000049265   -0.000238556   -0.000000000
   2   H   :   -0.060210686   -0.027459377    0.000000000
   3   H   :    0.054010418   -0.038057649   -0.000000000
   4   H   :    0.006249533    0.065755583    0.000000000

Difference to translation invariance:
           :   -0.0000000000    0.0000000000   -0.0000000000

Norm of the cartesian gradient     ...    0.1144891557
RMS gradient                       ...    0.0330501724
MAX gradient                       ...    0.0657555828

-------
TIMINGS
-------

Total SCF gradient time            ...        0.632 sec

One electron gradient       ....       0.005 sec  (  0.8%)
Prescreening matrices       ....       0.002 sec  (  0.4%)
Two electron gradient       ....       0.033 sec  (  5.2%)
RI-J Coulomb gradient       ....       0.170 sec  ( 27.0%)
XC gradient                 ....       0.066 sec  ( 10.5%)
------------------------------------------------------------------------------
                         ORCA GEOMETRY RELAXATION STEP
------------------------------------------------------------------------------

Reading the OPT-File                    .... done
Getting information on internals        .... done
Copying old internal coords+grads       .... done
Making the new internal coordinates     .... (new redundants).... done
Validating the new internal coordinates .... (new redundants).... done
Calculating the B-matrix                .... done
Calculating the G,G- and P matrices     .... done
Transforming gradient to internals      .... done
Projecting the internal gradient        .... done
Number of atoms                         ....   4
Number of internal coordinates          ....   7
Current Energy                          ....   -56.409362010 Eh
Current gradient norm                   ....     0.114489156 Eh/bohr
Maximum allowed component of the step   ....  0.300
Current trust radius                    ....  0.300
Evaluating the initial hessian          ....  (Almloef) done
Projecting the Hessian                  .... done
Diagonalizing the Hessian               .... done
Dimension of the hessian                ....   7
Lowest eigenvalues of the Hessian:
  0.039165866  0.329830411  0.329830411  0.560226515  0.560226518
Hessian has   0 negative eigenvalues
Taking P-RFO step
Searching for lambda that maximizes along the lowest mode
TS mode is mode number   0 with eigenvalue   0.03916587 and components:
   1.    0.00000000
   2.    0.00000000
   3.    0.00000000
   4.    0.00000000
   5.    0.00000000
   6.    0.00000000
   7.    1.00000000

Lambda that maximizes along the TS mode:       0.03916587
Searching for lambda that minimizes along all other modes
In cycle   1: lambdaN =  -0.02245927   step =   0.02245927
In cycle   2: lambdaN =  -0.02249408   step =   0.00003481
In cycle   3: lambdaN =  -0.02249408   step =   0.00000000
Lambda that minimizes along all other modes:  -0.02249408
The final length of the internal step   ....          nan
Converting the step to cartesian space:
 Initial RMS(Int)=             nan
Transforming coordinates:
 Iter   0:  RMS(Cart)=    0.1094113194 RMS(Int)=    0.1698201929
 Iter   1:  RMS(Cart)=    0.1001156414 RMS(Int)=    0.1315346044
 Iter   2:  RMS(Cart)=    0.1001038327 RMS(Int)=    0.1314736738
 Iter   3:  RMS(Cart)=    0.1001026654 RMS(Int)=    0.1314675910
 Iter   4:  RMS(Cart)=    0.1001024655 RMS(Int)=    0.1314665482
 Iter   5:  RMS(Cart)=    0.1001024193 RMS(Int)=    0.1314663070
 Iter   6:  RMS(Cart)=    0.1001024063 RMS(Int)=    0.1314662387
 Iter   7:  RMS(Cart)=    0.1001024020 RMS(Int)=    0.1314662163
 Iter   8:  RMS(Cart)=    0.1001024004 RMS(Int)=    0.1314662080
 Iter   9:  RMS(Cart)=    0.1001023997 RMS(Int)=    0.1314662047
 Iter  10:  RMS(Cart)=    0.1001023995 RMS(Int)=    0.1314662033
 Iter  11:  RMS(Cart)=    0.1001023993 RMS(Int)=    0.1314662026
 Iter  12:  RMS(Cart)=    0.1001023993 RMS(Int)=    0.1314662023
 Iter  13:  RMS(Cart)=    0.1001023992 RMS(Int)=    0.1314662021
 Iter  14:  RMS(Cart)=    0.1001023992 RMS(Int)=    0.1314662020
 Iter  15:  RMS(Cart)=    0.1001023992 RMS(Int)=    0.1314662019
 Iter  16:  RMS(Cart)=    0.1001023992 RMS(Int)=    0.1314662019
 Iter  17:  RMS(Cart)=    0.1001023992 RMS(Int)=    0.1314662019
 Iter  18:  RMS(Cart)=    0.1001023992 RMS(Int)=    0.1314662019
 Iter  19:  RMS(Cart)=    0.1001023992 RMS(Int)=    0.1314662019
 Iter  20:  RMS(Cart)=    0.1001023992 RMS(Int)=    0.1314662019
 Iter  21:  RMS(Cart)=    0.1001023992 RMS(Int)=    0.1314662019
 Iter  22:  RMS(Cart)=    0.1001023992 RMS(Int)=    0.1314662019
 Iter  23:  RMS(Cart)=    0.1001023992 RMS(Int)=    0.1314662019
 Iter  24:  RMS(Cart)=    0.1001023992 RMS(Int)=    0.1314662019
 Iter  25:  RMS(Cart)=    0.1001023992 RMS(Int)=    0.1314662019
 Iter  26:  RMS(Cart)=    0.1001023992 RMS(Int)=    0.1314662019
 Iter  27:  RMS(Cart)=    0.1001023992 RMS(Int)=    0.1314662019
 Iter  28:  RMS(Cart)=    0.1001023992 RMS(Int)=    0.1314662019
 Iter  29:  RMS(Cart)=    0.1001023992 RMS(Int)=    0.1314662019
 Iter  30:  RMS(Cart)=    0.1001023992 RMS(Int)=    0.1314662019
 Iter  31:  RMS(Cart)=    0.1001023992 RMS(Int)=    0.1314662019
 Iter  32:  RMS(Cart)=    0.1001023992 RMS(Int)=    0.1314662019
 Iter  33:  RMS(Cart)=    0.1001023992 RMS(Int)=    0.1314662019
 Iter  34:  RMS(Cart)=    0.1001023992 RMS(Int)=    0.1314662019
 Iter  35:  RMS(Cart)=    0.1001023992 RMS(Int)=    0.1314662019
 Iter  36:  RMS(Cart)=    0.1001023992 RMS(Int)=    0.1314662019
 Iter  37:  RMS(Cart)=    0.1001023992 RMS(Int)=    0.1314662019
 Iter  38:  RMS(Cart)=    0.1001023992 RMS(Int)=    0.1314662019
 Iter  39:  RMS(Cart)=    0.1001023992 RMS(Int)=    0.1314662019
 Iter  40:  RMS(Cart)=    0.1001023992 RMS(Int)=    0.1314662019
 Iter  41:  RMS(Cart)=    0.1001023992 RMS(Int)=    0.1314662019
 Iter  42:  RMS(Cart)=    0.1001023992 RMS(Int)=    0.1314662019
 Iter  43:  RMS(Cart)=    0.1001023992 RMS(Int)=    0.1314662019
 Iter  44:  RMS(Cart)=    0.1001023992 RMS(Int)=    0.1314662019
 Iter  45:  RMS(Cart)=    0.1001023992 RMS(Int)=    0.1314662019
 Iter  46:  RMS(Cart)=    0.1001023992 RMS(Int)=    0.1314662019
 Iter  47:  RMS(Cart)=    0.1001023992 RMS(Int)=    0.1314662019
 Iter  48:  RMS(Cart)=    0.1001023992 RMS(Int)=    0.1314662019
 Iter  49:  RMS(Cart)=    0.1001023992 RMS(Int)=    0.1314662019
 Iter  50:  RMS(Cart)=    0.1001023992 RMS(Int)=    0.1314662019
 Iter  51:  RMS(Cart)=    0.1001023992 RMS(Int)=    0.1314662019
 Iter  52:  RMS(Cart)=    0.1001023992 RMS(Int)=    0.1314662019
 Iter  53:  RMS(Cart)=    0.1001023992 RMS(Int)=    0.1314662019
 Iter  54:  RMS(Cart)=    0.1001023992 RMS(Int)=    0.1314662019
 Iter  55:  RMS(Cart)=    0.1001023992 RMS(Int)=    0.1314662019
 Iter  56:  RMS(Cart)=    0.1001023992 RMS(Int)=    0.1314662019
 Iter  57:  RMS(Cart)=    0.1001023992 RMS(Int)=    0.1314662019
 Iter  58:  RMS(Cart)=    0.1001023992 RMS(Int)=    0.1314662019
 Iter  59:  RMS(Cart)=    0.1001023992 RMS(Int)=    0.1314662019
 Iter  60:  RMS(Cart)=    0.1001023992 RMS(Int)=    0.1314662019
 Iter  61:  RMS(Cart)=    0.1001023992 RMS(Int)=    0.1314662019
 Iter  62:  RMS(Cart)=    0.1001023992 RMS(Int)=    0.1314662019
 Iter  63:  RMS(Cart)=    0.1001023992 RMS(Int)=    0.1314662019
 Iter  64:  RMS(Cart)=    0.1001023992 RMS(Int)=    0.1314662019
 Iter  65:  RMS(Cart)=    0.1001023992 RMS(Int)=    0.1314662019
 Iter  66:  RMS(Cart)=    0.1001023992 RMS(Int)=    0.1314662019
 Iter  67:  RMS(Cart)=    0.1001023992 RMS(Int)=    0.1314662019
 Iter  68:  RMS(Cart)=    0.1001023992 RMS(Int)=    0.1314662019
 Iter  69:  RMS(Cart)=    0.1001023992 RMS(Int)=    0.1314662019
 Iter  70:  RMS(Cart)=    0.1001023992 RMS(Int)=    0.1314662019
 Iter  71:  RMS(Cart)=    0.1001023992 RMS(Int)=    0.1314662019
 Iter  72:  RMS(Cart)=    0.1001023992 RMS(Int)=    0.1314662019
 Iter  73:  RMS(Cart)=    0.1001023992 RMS(Int)=    0.1314662019
 Iter  74:  RMS(Cart)=    0.1001023992 RMS(Int)=    0.1314662019
 Iter  75:  RMS(Cart)=    0.1001023992 RMS(Int)=    0.1314662019
 Iter  76:  RMS(Cart)=    0.1001023992 RMS(Int)=    0.1314662019
 Iter  77:  RMS(Cart)=    0.1001023992 RMS(Int)=    0.1314662019
 Iter  78:  RMS(Cart)=    0.1001023992 RMS(Int)=    0.1314662019
 Iter  79:  RMS(Cart)=    0.1001023992 RMS(Int)=    0.1314662019
 Iter  80:  RMS(Cart)=    0.1001023992 RMS(Int)=    0.1314662019
 Iter  81:  RMS(Cart)=    0.1001023992 RMS(Int)=    0.1314662019
 Iter  82:  RMS(Cart)=    0.1001023992 RMS(Int)=    0.1314662019
 Iter  83:  RMS(Cart)=    0.1001023992 RMS(Int)=    0.1314662019
 Iter  84:  RMS(Cart)=    0.1001023992 RMS(Int)=    0.1314662019
 Iter  85:  RMS(Cart)=    0.1001023992 RMS(Int)=    0.1314662019
 Iter  86:  RMS(Cart)=    0.1001023992 RMS(Int)=    0.1314662019
 Iter  87:  RMS(Cart)=    0.1001023992 RMS(Int)=    0.1314662019
 Iter  88:  RMS(Cart)=    0.1001023992 RMS(Int)=    0.1314662019
 Iter  89:  RMS(Cart)=    0.1001023992 RMS(Int)=    0.1314662019
 Iter  90:  RMS(Cart)=    0.1001023992 RMS(Int)=    0.1314662019
 Iter  91:  RMS(Cart)=    0.1001023992 RMS(Int)=    0.1314662019
 Iter  92:  RMS(Cart)=    0.1001023992 RMS(Int)=    0.1314662019
 Iter  93:  RMS(Cart)=    0.1001023992 RMS(Int)=    0.1314662019
 Iter  94:  RMS(Cart)=    0.1001023992 RMS(Int)=    0.1314662019
 Iter  95:  RMS(Cart)=    0.1001023992 RMS(Int)=    0.1314662019
 Iter  96:  RMS(Cart)=    0.1001023992 RMS(Int)=    0.1314662019
 Iter  97:  RMS(Cart)=    0.1001023992 RMS(Int)=    0.1314662019
 Iter  98:  RMS(Cart)=    0.1001023992 RMS(Int)=    0.1314662019
 Iter  99:  RMS(Cart)=    0.1001023992 RMS(Int)=    0.1314662019
 RMS(Cart) too big - taking linear step, building new B-matrix and trying again
 Initial RMS(Int)=             nan
Transforming coordinates:
 Iter   0:  RMS(Cart)=    0.1005147456 RMS(Int)=    0.1314085783
 Iter   1:  RMS(Cart)=    0.0998198988 RMS(Int)=    0.1309726362
 Iter   2:  RMS(Cart)=    0.0998048546 RMS(Int)=    0.1309696542
 Iter   3:  RMS(Cart)=    0.0998034201 RMS(Int)=    0.1309698969
 Iter   4:  RMS(Cart)=    0.0998032077 RMS(Int)=    0.1309706598
 Iter   5:  RMS(Cart)=    0.0998031753 RMS(Int)=    0.1309715668
 Iter   6:  RMS(Cart)=    0.0998031770 RMS(Int)=    0.1309724946
 Iter   7:  RMS(Cart)=    0.0998031854 RMS(Int)=    0.1309733899
 Iter   8:  RMS(Cart)=    0.0998031945 RMS(Int)=    0.1309742292
 Iter   9:  RMS(Cart)=    0.0998032029 RMS(Int)=    0.1309750036
 Iter  10:  RMS(Cart)=    0.0998032104 RMS(Int)=    0.1309757118
 Iter  11:  RMS(Cart)=    0.0998032170 RMS(Int)=    0.1309763564
 Iter  12:  RMS(Cart)=    0.0998032227 RMS(Int)=    0.1309769416
 Iter  13:  RMS(Cart)=    0.0998032278 RMS(Int)=    0.1309774726
 Iter  14:  RMS(Cart)=    0.0998032322 RMS(Int)=    0.1309779543
 Iter  15:  RMS(Cart)=    0.0998032362 RMS(Int)=    0.1309783917
 Iter  16:  RMS(Cart)=    0.0998032397 RMS(Int)=    0.1309787895
 Iter  17:  RMS(Cart)=    0.0998032429 RMS(Int)=    0.1309791517
 Iter  18:  RMS(Cart)=    0.0998032457 RMS(Int)=    0.1309794820
 Iter  19:  RMS(Cart)=    0.0998032482 RMS(Int)=    0.1309797839
 Iter  20:  RMS(Cart)=    0.0998032505 RMS(Int)=    0.1309800603
 Iter  21:  RMS(Cart)=    0.0998032526 RMS(Int)=    0.1309803138
 Iter  22:  RMS(Cart)=    0.0998032545 RMS(Int)=    0.1309805468
 Iter  23:  RMS(Cart)=    0.0998032562 RMS(Int)=    0.1309807612
 Iter  24:  RMS(Cart)=    0.0998032578 RMS(Int)=    0.1309809591
 Iter  25:  RMS(Cart)=    0.0998032593 RMS(Int)=    0.1309811418
 Iter  26:  RMS(Cart)=    0.0998032606 RMS(Int)=    0.1309813110
 Iter  27:  RMS(Cart)=    0.0998032618 RMS(Int)=    0.1309814679
 Iter  28:  RMS(Cart)=    0.0998032630 RMS(Int)=    0.1309816135
 Iter  29:  RMS(Cart)=    0.0998032640 RMS(Int)=    0.1309817490
 Iter  30:  RMS(Cart)=    0.0998032650 RMS(Int)=    0.1309818752
 Iter  31:  RMS(Cart)=    0.0998032659 RMS(Int)=    0.1309819930
 Iter  32:  RMS(Cart)=    0.0998032667 RMS(Int)=    0.1309821030
 Iter  33:  RMS(Cart)=    0.0998032675 RMS(Int)=    0.1309822059
 Iter  34:  RMS(Cart)=    0.0998032682 RMS(Int)=    0.1309823023
 Iter  35:  RMS(Cart)=    0.0998032689 RMS(Int)=    0.1309823928
 Iter  36:  RMS(Cart)=    0.0998032696 RMS(Int)=    0.1309824777
 Iter  37:  RMS(Cart)=    0.0998032702 RMS(Int)=    0.1309825576
 Iter  38:  RMS(Cart)=    0.0998032707 RMS(Int)=    0.1309826328
 Iter  39:  RMS(Cart)=    0.0998032713 RMS(Int)=    0.1309827036
 Iter  40:  RMS(Cart)=    0.0998032718 RMS(Int)=    0.1309827705
 Iter  41:  RMS(Cart)=    0.0998032722 RMS(Int)=    0.1309828337
 Iter  42:  RMS(Cart)=    0.0998032727 RMS(Int)=    0.1309828934
 Iter  43:  RMS(Cart)=    0.0998032731 RMS(Int)=    0.1309829499
 Iter  44:  RMS(Cart)=    0.0998032735 RMS(Int)=    0.1309830034
 Iter  45:  RMS(Cart)=    0.0998032739 RMS(Int)=    0.1309830542
 Iter  46:  RMS(Cart)=    0.0998032742 RMS(Int)=    0.1309831023
 Iter  47:  RMS(Cart)=    0.0998032746 RMS(Int)=    0.1309831481
 Iter  48:  RMS(Cart)=    0.0998032749 RMS(Int)=    0.1309831915
 Iter  49:  RMS(Cart)=    0.0998032752 RMS(Int)=    0.1309832329
 Iter  50:  RMS(Cart)=    0.0998032755 RMS(Int)=    0.1309832723
 Iter  51:  RMS(Cart)=    0.0998032758 RMS(Int)=    0.1309833098
 Iter  52:  RMS(Cart)=    0.0998032760 RMS(Int)=    0.1309833456
 Iter  53:  RMS(Cart)=    0.0998032763 RMS(Int)=    0.1309833798
 Iter  54:  RMS(Cart)=    0.0998032765 RMS(Int)=    0.1309834124
 Iter  55:  RMS(Cart)=    0.0998032767 RMS(Int)=    0.1309834436
 Iter  56:  RMS(Cart)=    0.0998032770 RMS(Int)=    0.1309834734
 Iter  57:  RMS(Cart)=    0.0998032772 RMS(Int)=    0.1309835019
 Iter  58:  RMS(Cart)=    0.0998032774 RMS(Int)=    0.1309835292
 Iter  59:  RMS(Cart)=    0.0998032776 RMS(Int)=    0.1309835553
 Iter  60:  RMS(Cart)=    0.0998032777 RMS(Int)=    0.1309835804
 Iter  61:  RMS(Cart)=    0.0998032779 RMS(Int)=    0.1309836044
 Iter  62:  RMS(Cart)=    0.0998032781 RMS(Int)=    0.1309836275
 Iter  63:  RMS(Cart)=    0.0998032783 RMS(Int)=    0.1309836497
 Iter  64:  RMS(Cart)=    0.0998032784 RMS(Int)=    0.1309836709
 Iter  65:  RMS(Cart)=    0.0998032786 RMS(Int)=    0.1309836914
 Iter  66:  RMS(Cart)=    0.0998032787 RMS(Int)=    0.1309837111
 Iter  67:  RMS(Cart)=    0.0998032788 RMS(Int)=    0.1309837300
 Iter  68:  RMS(Cart)=    0.0998032790 RMS(Int)=    0.1309837482
 Iter  69:  RMS(Cart)=    0.0998032791 RMS(Int)=    0.1309837658
 Iter  70:  RMS(Cart)=    0.0998032792 RMS(Int)=    0.1309837827
 Iter  71:  RMS(Cart)=    0.0998032793 RMS(Int)=    0.1309837990
 Iter  72:  RMS(Cart)=    0.0998032795 RMS(Int)=    0.1309838147
 Iter  73:  RMS(Cart)=    0.0998032796 RMS(Int)=    0.1309838298
 Iter  74:  RMS(Cart)=    0.0998032797 RMS(Int)=    0.1309838445
 Iter  75:  RMS(Cart)=    0.0998032798 RMS(Int)=    0.1309838586
 Iter  76:  RMS(Cart)=    0.0998032799 RMS(Int)=    0.1309838722
 Iter  77:  RMS(Cart)=    0.0998032800 RMS(Int)=    0.1309838854
 Iter  78:  RMS(Cart)=    0.0998032801 RMS(Int)=    0.1309838982
 Iter  79:  RMS(Cart)=    0.0998032801 RMS(Int)=    0.1309839105
 Iter  80:  RMS(Cart)=    0.0998032802 RMS(Int)=    0.1309839224
 Iter  81:  RMS(Cart)=    0.0998032803 RMS(Int)=    0.1309839340
 Iter  82:  RMS(Cart)=    0.0998032804 RMS(Int)=    0.1309839452
 Iter  83:  RMS(Cart)=    0.0998032805 RMS(Int)=    0.1309839560
 Iter  84:  RMS(Cart)=    0.0998032805 RMS(Int)=    0.1309839665
 Iter  85:  RMS(Cart)=    0.0998032806 RMS(Int)=    0.1309839766
 Iter  86:  RMS(Cart)=    0.0998032807 RMS(Int)=    0.1309839865
 Iter  87:  RMS(Cart)=    0.0998032808 RMS(Int)=    0.1309839960
 Iter  88:  RMS(Cart)=    0.0998032808 RMS(Int)=    0.1309840053
 Iter  89:  RMS(Cart)=    0.0998032809 RMS(Int)=    0.1309840143
 Iter  90:  RMS(Cart)=    0.0998032810 RMS(Int)=    0.1309840230
 Iter  91:  RMS(Cart)=    0.0998032810 RMS(Int)=    0.1309840314
 Iter  92:  RMS(Cart)=    0.0998032811 RMS(Int)=    0.1309840397
 Iter  93:  RMS(Cart)=    0.0998032811 RMS(Int)=    0.1309840477
 Iter  94:  RMS(Cart)=    0.0998032812 RMS(Int)=    0.1309840554
 Iter  95:  RMS(Cart)=    0.0998032812 RMS(Int)=    0.1309840630
 Iter  96:  RMS(Cart)=    0.0998032813 RMS(Int)=    0.1309840703
 Iter  97:  RMS(Cart)=    0.0998032813 RMS(Int)=    0.1309840774
 Iter  98:  RMS(Cart)=    0.0998032814 RMS(Int)=    0.1309840844
 Iter  99:  RMS(Cart)=    0.0998032814 RMS(Int)=    0.1309840911
 RMS(Cart) too big - taking linear step, building new B-matrix and trying again
 Initial RMS(Int)=             nan
Transforming coordinates:
 Iter   0:  RMS(Cart)=    0.0997218298 RMS(Int)=    0.1309566530
 Iter   1:  RMS(Cart)=    0.0997809113 RMS(Int)=    0.1309515543
 Iter   2:  RMS(Cart)=    0.0997822336 RMS(Int)=    0.1309520149
 Iter   3:  RMS(Cart)=    0.0997823701 RMS(Int)=    0.1309527865
 Iter   4:  RMS(Cart)=    0.0997824036 RMS(Int)=    0.1309536662
 Iter   5:  RMS(Cart)=    0.0997824202 RMS(Int)=    0.1309545596
 Iter   6:  RMS(Cart)=    0.0997824320 RMS(Int)=    0.1309554203
 Iter   7:  RMS(Cart)=    0.0997824415 RMS(Int)=    0.1309562266
 Iter   8:  RMS(Cart)=    0.0997824495 RMS(Int)=    0.1309569706
 Iter   9:  RMS(Cart)=    0.0997824563 RMS(Int)=    0.1309576509
 Iter  10:  RMS(Cart)=    0.0997824621 RMS(Int)=    0.1309582701
 Iter  11:  RMS(Cart)=    0.0997824672 RMS(Int)=    0.1309588323
 Iter  12:  RMS(Cart)=    0.0997824717 RMS(Int)=    0.1309593424
 Iter  13:  RMS(Cart)=    0.0997824756 RMS(Int)=    0.1309598052
 Iter  14:  RMS(Cart)=    0.0997824790 RMS(Int)=    0.1309602255
 Iter  15:  RMS(Cart)=    0.0997824821 RMS(Int)=    0.1309606076
 Iter  16:  RMS(Cart)=    0.0997824849 RMS(Int)=    0.1309609555
 Iter  17:  RMS(Cart)=    0.0997824874 RMS(Int)=    0.1309612729
 Iter  18:  RMS(Cart)=    0.0997824896 RMS(Int)=    0.1309615630
 Iter  19:  RMS(Cart)=    0.0997824916 RMS(Int)=    0.1309618285
 Iter  20:  RMS(Cart)=    0.0997824934 RMS(Int)=    0.1309620721
 Iter  21:  RMS(Cart)=    0.0997824951 RMS(Int)=    0.1309622959
 Iter  22:  RMS(Cart)=    0.0997824966 RMS(Int)=    0.1309625020
 Iter  23:  RMS(Cart)=    0.0997824980 RMS(Int)=    0.1309626920
 Iter  24:  RMS(Cart)=    0.0997824993 RMS(Int)=    0.1309628677
 Iter  25:  RMS(Cart)=    0.0997825005 RMS(Int)=    0.1309630302
 Iter  26:  RMS(Cart)=    0.0997825015 RMS(Int)=    0.1309631809
 Iter  27:  RMS(Cart)=    0.0997825025 RMS(Int)=    0.1309633209
 Iter  28:  RMS(Cart)=    0.0997825034 RMS(Int)=    0.1309634510
 Iter  29:  RMS(Cart)=    0.0997825043 RMS(Int)=    0.1309635723
 Iter  30:  RMS(Cart)=    0.0997825051 RMS(Int)=    0.1309636855
 Iter  31:  RMS(Cart)=    0.0997825058 RMS(Int)=    0.1309637912
 Iter  32:  RMS(Cart)=    0.0997825065 RMS(Int)=    0.1309638901
 Iter  33:  RMS(Cart)=    0.0997825072 RMS(Int)=    0.1309639827
 Iter  34:  RMS(Cart)=    0.0997825078 RMS(Int)=    0.1309640696
 Iter  35:  RMS(Cart)=    0.0997825083 RMS(Int)=    0.1309641512
 Iter  36:  RMS(Cart)=    0.0997825089 RMS(Int)=    0.1309642280
 Iter  37:  RMS(Cart)=    0.0997825093 RMS(Int)=    0.1309643002
 Iter  38:  RMS(Cart)=    0.0997825098 RMS(Int)=    0.1309643683
 Iter  39:  RMS(Cart)=    0.0997825103 RMS(Int)=    0.1309644326
 Iter  40:  RMS(Cart)=    0.0997825107 RMS(Int)=    0.1309644933
 Iter  41:  RMS(Cart)=    0.0997825111 RMS(Int)=    0.1309645506
 Iter  42:  RMS(Cart)=    0.0997825114 RMS(Int)=    0.1309646049
 Iter  43:  RMS(Cart)=    0.0997825118 RMS(Int)=    0.1309646564
 Iter  44:  RMS(Cart)=    0.0997825121 RMS(Int)=    0.1309647051
 Iter  45:  RMS(Cart)=    0.0997825124 RMS(Int)=    0.1309647514
 Iter  46:  RMS(Cart)=    0.0997825127 RMS(Int)=    0.1309647954
 Iter  47:  RMS(Cart)=    0.0997825130 RMS(Int)=    0.1309648371
 Iter  48:  RMS(Cart)=    0.0997825133 RMS(Int)=    0.1309648769
 Iter  49:  RMS(Cart)=    0.0997825135 RMS(Int)=    0.1309649147
 Iter  50:  RMS(Cart)=    0.0997825138 RMS(Int)=    0.1309649508
 Iter  51:  RMS(Cart)=    0.0997825140 RMS(Int)=    0.1309649852
 Iter  52:  RMS(Cart)=    0.0997825142 RMS(Int)=    0.1309650180
 Iter  53:  RMS(Cart)=    0.0997825144 RMS(Int)=    0.1309650494
 Iter  54:  RMS(Cart)=    0.0997825146 RMS(Int)=    0.1309650793
 Iter  55:  RMS(Cart)=    0.0997825148 RMS(Int)=    0.1309651079
 Iter  56:  RMS(Cart)=    0.0997825150 RMS(Int)=    0.1309651353
 Iter  57:  RMS(Cart)=    0.0997825152 RMS(Int)=    0.1309651616
 Iter  58:  RMS(Cart)=    0.0997825153 RMS(Int)=    0.1309651867
 Iter  59:  RMS(Cart)=    0.0997825155 RMS(Int)=    0.1309652108
 Iter  60:  RMS(Cart)=    0.0997825156 RMS(Int)=    0.1309652339
 Iter  61:  RMS(Cart)=    0.0997825158 RMS(Int)=    0.1309652561
 Iter  62:  RMS(Cart)=    0.0997825159 RMS(Int)=    0.1309652774
 Iter  63:  RMS(Cart)=    0.0997825161 RMS(Int)=    0.1309652978
 Iter  64:  RMS(Cart)=    0.0997825162 RMS(Int)=    0.1309653175
 Iter  65:  RMS(Cart)=    0.0997825163 RMS(Int)=    0.1309653364
 Iter  66:  RMS(Cart)=    0.0997825164 RMS(Int)=    0.1309653546
 Iter  67:  RMS(Cart)=    0.0997825166 RMS(Int)=    0.1309653721
 Iter  68:  RMS(Cart)=    0.0997825167 RMS(Int)=    0.1309653889
 Iter  69:  RMS(Cart)=    0.0997825168 RMS(Int)=    0.1309654052
 Iter  70:  RMS(Cart)=    0.0997825169 RMS(Int)=    0.1309654208
 Iter  71:  RMS(Cart)=    0.0997825170 RMS(Int)=    0.1309654359
 Iter  72:  RMS(Cart)=    0.0997825171 RMS(Int)=    0.1309654505
 Iter  73:  RMS(Cart)=    0.0997825172 RMS(Int)=    0.1309654646
 Iter  74:  RMS(Cart)=    0.0997825173 RMS(Int)=    0.1309654781
 Iter  75:  RMS(Cart)=    0.0997825173 RMS(Int)=    0.1309654912
 Iter  76:  RMS(Cart)=    0.0997825174 RMS(Int)=    0.1309655039
 Iter  77:  RMS(Cart)=    0.0997825175 RMS(Int)=    0.1309655162
 Iter  78:  RMS(Cart)=    0.0997825176 RMS(Int)=    0.1309655280
 Iter  79:  RMS(Cart)=    0.0997825177 RMS(Int)=    0.1309655395
 Iter  80:  RMS(Cart)=    0.0997825177 RMS(Int)=    0.1309655506
 Iter  81:  RMS(Cart)=    0.0997825178 RMS(Int)=    0.1309655613
 Iter  82:  RMS(Cart)=    0.0997825179 RMS(Int)=    0.1309655717
 Iter  83:  RMS(Cart)=    0.0997825179 RMS(Int)=    0.1309655818
 Iter  84:  RMS(Cart)=    0.0997825180 RMS(Int)=    0.1309655915
 Iter  85:  RMS(Cart)=    0.0997825181 RMS(Int)=    0.1309656010
 Iter  86:  RMS(Cart)=    0.0997825181 RMS(Int)=    0.1309656102
 Iter  87:  RMS(Cart)=    0.0997825182 RMS(Int)=    0.1309656191
 Iter  88:  RMS(Cart)=    0.0997825182 RMS(Int)=    0.1309656277
 Iter  89:  RMS(Cart)=    0.0997825183 RMS(Int)=    0.1309656361
 Iter  90:  RMS(Cart)=    0.0997825183 RMS(Int)=    0.1309656442
 Iter  91:  RMS(Cart)=    0.0997825184 RMS(Int)=    0.1309656521
 Iter  92:  RMS(Cart)=    0.0997825185 RMS(Int)=    0.1309656598
 Iter  93:  RMS(Cart)=    0.0997825185 RMS(Int)=    0.1309656673
 Iter  94:  RMS(Cart)=    0.0997825185 RMS(Int)=    0.1309656745
 Iter  95:  RMS(Cart)=    0.0997825186 RMS(Int)=    0.1309656816
 Iter  96:  RMS(Cart)=    0.0997825186 RMS(Int)=    0.1309656884
 Iter  97:  RMS(Cart)=    0.0997825187 RMS(Int)=    0.1309656951
 Iter  98:  RMS(Cart)=    0.0997825187 RMS(Int)=    0.1309657016
 Iter  99:  RMS(Cart)=    0.0997825188 RMS(Int)=    0.1309657079
 RMS(Cart) too big - taking linear step, building new B-matrix and trying again
 Initial RMS(Int)=             nan
Transforming coordinates:
 Iter   0:  RMS(Cart)=    0.0997880309 RMS(Int)=    0.1309534242
 Iter   1:  RMS(Cart)=    0.0997876333 RMS(Int)=    0.1309541405
 Iter   2:  RMS(Cart)=    0.0997876528 RMS(Int)=    0.1309552845
 Iter   3:  RMS(Cart)=    0.0997876757 RMS(Int)=    0.1309565861
 Iter   4:  RMS(Cart)=    0.0997876951 RMS(Int)=    0.1309579078
 Iter   5:  RMS(Cart)=    0.0997877115 RMS(Int)=    0.1309591810
 Iter   6:  RMS(Cart)=    0.0997877252 RMS(Int)=    0.1309603738
 Iter   7:  RMS(Cart)=    0.0997877370 RMS(Int)=    0.1309614743
 Iter   8:  RMS(Cart)=    0.0997877470 RMS(Int)=    0.1309624807
 Iter   9:  RMS(Cart)=    0.0997877558 RMS(Int)=    0.1309633967
 Iter  10:  RMS(Cart)=    0.0997877633 RMS(Int)=    0.1309642284
 Iter  11:  RMS(Cart)=    0.0997877700 RMS(Int)=    0.1309649829
 Iter  12:  RMS(Cart)=    0.0997877759 RMS(Int)=    0.1309656675
 Iter  13:  RMS(Cart)=    0.0997877810 RMS(Int)=    0.1309662892
 Iter  14:  RMS(Cart)=    0.0997877857 RMS(Int)=    0.1309668545
 Iter  15:  RMS(Cart)=    0.0997877898 RMS(Int)=    0.1309673692
 Iter  16:  RMS(Cart)=    0.0997877935 RMS(Int)=    0.1309678387
 Iter  17:  RMS(Cart)=    0.0997877968 RMS(Int)=    0.1309682678
 Iter  18:  RMS(Cart)=    0.0997877998 RMS(Int)=    0.1309686606
 Iter  19:  RMS(Cart)=    0.0997878026 RMS(Int)=    0.1309690209
 Iter  20:  RMS(Cart)=    0.0997878050 RMS(Int)=    0.1309693519
 Iter  21:  RMS(Cart)=    0.0997878073 RMS(Int)=    0.1309696568
 Iter  22:  RMS(Cart)=    0.0997878094 RMS(Int)=    0.1309699379
 Iter  23:  RMS(Cart)=    0.0997878113 RMS(Int)=    0.1309701977
 Iter  24:  RMS(Cart)=    0.0997878130 RMS(Int)=    0.1309704381
 Iter  25:  RMS(Cart)=    0.0997878146 RMS(Int)=    0.1309706611
 Iter  26:  RMS(Cart)=    0.0997878161 RMS(Int)=    0.1309708681
 Iter  27:  RMS(Cart)=    0.0997878175 RMS(Int)=    0.1309710607
 Iter  28:  RMS(Cart)=    0.0997878188 RMS(Int)=    0.1309712401
 Iter  29:  RMS(Cart)=    0.0997878200 RMS(Int)=    0.1309714074
 Iter  30:  RMS(Cart)=    0.0997878211 RMS(Int)=    0.1309715638
 Iter  31:  RMS(Cart)=    0.0997878221 RMS(Int)=    0.1309717100
 Iter  32:  RMS(Cart)=    0.0997878231 RMS(Int)=    0.1309718471
 Iter  33:  RMS(Cart)=    0.0997878240 RMS(Int)=    0.1309719756
 Iter  34:  RMS(Cart)=    0.0997878248 RMS(Int)=    0.1309720964
 Iter  35:  RMS(Cart)=    0.0997878256 RMS(Int)=    0.1309722099
 Iter  36:  RMS(Cart)=    0.0997878263 RMS(Int)=    0.1309723168
 Iter  37:  RMS(Cart)=    0.0997878270 RMS(Int)=    0.1309724175
 Iter  38:  RMS(Cart)=    0.0997878277 RMS(Int)=    0.1309725125
 Iter  39:  RMS(Cart)=    0.0997878283 RMS(Int)=    0.1309726023
 Iter  40:  RMS(Cart)=    0.0997878289 RMS(Int)=    0.1309726872
 Iter  41:  RMS(Cart)=    0.0997878294 RMS(Int)=    0.1309727675
 Iter  42:  RMS(Cart)=    0.0997878300 RMS(Int)=    0.1309728436
 Iter  43:  RMS(Cart)=    0.0997878305 RMS(Int)=    0.1309729157
 Iter  44:  RMS(Cart)=    0.0997878309 RMS(Int)=    0.1309729841
 Iter  45:  RMS(Cart)=    0.0997878314 RMS(Int)=    0.1309730492
 Iter  46:  RMS(Cart)=    0.0997878318 RMS(Int)=    0.1309731110
 Iter  47:  RMS(Cart)=    0.0997878322 RMS(Int)=    0.1309731698
 Iter  48:  RMS(Cart)=    0.0997878326 RMS(Int)=    0.1309732258
 Iter  49:  RMS(Cart)=    0.0997878329 RMS(Int)=    0.1309732791
 Iter  50:  RMS(Cart)=    0.0997878333 RMS(Int)=    0.1309733300
 Iter  51:  RMS(Cart)=    0.0997878336 RMS(Int)=    0.1309733785
 Iter  52:  RMS(Cart)=    0.0997878339 RMS(Int)=    0.1309734249
 Iter  53:  RMS(Cart)=    0.0997878342 RMS(Int)=    0.1309734692
 Iter  54:  RMS(Cart)=    0.0997878345 RMS(Int)=    0.1309735115
 Iter  55:  RMS(Cart)=    0.0997878348 RMS(Int)=    0.1309735521
 Iter  56:  RMS(Cart)=    0.0997878350 RMS(Int)=    0.1309735909
 Iter  57:  RMS(Cart)=    0.0997878353 RMS(Int)=    0.1309736280
 Iter  58:  RMS(Cart)=    0.0997878355 RMS(Int)=    0.1309736637
 Iter  59:  RMS(Cart)=    0.0997878358 RMS(Int)=    0.1309736978
 Iter  60:  RMS(Cart)=    0.0997878360 RMS(Int)=    0.1309737306
 Iter  61:  RMS(Cart)=    0.0997878362 RMS(Int)=    0.1309737621
 Iter  62:  RMS(Cart)=    0.0997878364 RMS(Int)=    0.1309737924
 Iter  63:  RMS(Cart)=    0.0997878366 RMS(Int)=    0.1309738214
 Iter  64:  RMS(Cart)=    0.0997878368 RMS(Int)=    0.1309738494
 Iter  65:  RMS(Cart)=    0.0997878370 RMS(Int)=    0.1309738763
 Iter  66:  RMS(Cart)=    0.0997878371 RMS(Int)=    0.1309739022
 Iter  67:  RMS(Cart)=    0.0997878373 RMS(Int)=    0.1309739271
 Iter  68:  RMS(Cart)=    0.0997878375 RMS(Int)=    0.1309739512
 Iter  69:  RMS(Cart)=    0.0997878376 RMS(Int)=    0.1309739743
 Iter  70:  RMS(Cart)=    0.0997878378 RMS(Int)=    0.1309739967
 Iter  71:  RMS(Cart)=    0.0997878379 RMS(Int)=    0.1309740182
 Iter  72:  RMS(Cart)=    0.0997878380 RMS(Int)=    0.1309740390
 Iter  73:  RMS(Cart)=    0.0997878382 RMS(Int)=    0.1309740591
 Iter  74:  RMS(Cart)=    0.0997878383 RMS(Int)=    0.1309740785
 Iter  75:  RMS(Cart)=    0.0997878384 RMS(Int)=    0.1309740972
 Iter  76:  RMS(Cart)=    0.0997878386 RMS(Int)=    0.1309741154
 Iter  77:  RMS(Cart)=    0.0997878387 RMS(Int)=    0.1309741329
 Iter  78:  RMS(Cart)=    0.0997878388 RMS(Int)=    0.1309741498
 Iter  79:  RMS(Cart)=    0.0997878389 RMS(Int)=    0.1309741662
 Iter  80:  RMS(Cart)=    0.0997878390 RMS(Int)=    0.1309741821
 Iter  81:  RMS(Cart)=    0.0997878391 RMS(Int)=    0.1309741975
 Iter  82:  RMS(Cart)=    0.0997878392 RMS(Int)=    0.1309742124
 Iter  83:  RMS(Cart)=    0.0997878393 RMS(Int)=    0.1309742268
 Iter  84:  RMS(Cart)=    0.0997878394 RMS(Int)=    0.1309742408
 Iter  85:  RMS(Cart)=    0.0997878395 RMS(Int)=    0.1309742544
 Iter  86:  RMS(Cart)=    0.0997878396 RMS(Int)=    0.1309742676
 Iter  87:  RMS(Cart)=    0.0997878397 RMS(Int)=    0.1309742803
 Iter  88:  RMS(Cart)=    0.0997878397 RMS(Int)=    0.1309742927
 Iter  89:  RMS(Cart)=    0.0997878398 RMS(Int)=    0.1309743048
 Iter  90:  RMS(Cart)=    0.0997878399 RMS(Int)=    0.1309743165
 Iter  91:  RMS(Cart)=    0.0997878400 RMS(Int)=    0.1309743278
 Iter  92:  RMS(Cart)=    0.0997878400 RMS(Int)=    0.1309743389
 Iter  93:  RMS(Cart)=    0.0997878401 RMS(Int)=    0.1309743496
 Iter  94:  RMS(Cart)=    0.0997878402 RMS(Int)=    0.1309743600
 Iter  95:  RMS(Cart)=    0.0997878403 RMS(Int)=    0.1309743701
 Iter  96:  RMS(Cart)=    0.0997878403 RMS(Int)=    0.1309743800
 Iter  97:  RMS(Cart)=    0.0997878404 RMS(Int)=    0.1309743896
 Iter  98:  RMS(Cart)=    0.0997878404 RMS(Int)=    0.1309743989
 Iter  99:  RMS(Cart)=    0.0997878405 RMS(Int)=    0.1309744080
 RMS(Cart) too big - taking linear step, building new B-matrix and trying again
 Initial RMS(Int)=             nan
Transforming coordinates:
 Iter   0:  RMS(Cart)=    0.0997830147 RMS(Int)=    0.1309538467
 Iter   1:  RMS(Cart)=    0.0997903840 RMS(Int)=    0.1309553622
 Iter   2:  RMS(Cart)=    0.0997905778 RMS(Int)=    0.1309571490
 Iter   3:  RMS(Cart)=    0.0997906178 RMS(Int)=    0.1309589629
 Iter   4:  RMS(Cart)=    0.0997906419 RMS(Int)=    0.1309607102
 Iter   5:  RMS(Cart)=    0.0997906611 RMS(Int)=    0.1309623473
 Iter   6:  RMS(Cart)=    0.0997906773 RMS(Int)=    0.1309638576
 Iter   7:  RMS(Cart)=    0.0997906911 RMS(Int)=    0.1309652389
 Iter   8:  RMS(Cart)=    0.0997907031 RMS(Int)=    0.1309664960
 Iter   9:  RMS(Cart)=    0.0997907135 RMS(Int)=    0.1309676374
 Iter  10:  RMS(Cart)=    0.0997907226 RMS(Int)=    0.1309686729
 Iter  11:  RMS(Cart)=    0.0997907306 RMS(Int)=    0.1309696125
 Iter  12:  RMS(Cart)=    0.0997907378 RMS(Int)=    0.1309704657
 Iter  13:  RMS(Cart)=    0.0997907441 RMS(Int)=    0.1309712415
 Iter  14:  RMS(Cart)=    0.0997907498 RMS(Int)=    0.1309719479
 Iter  15:  RMS(Cart)=    0.0997907548 RMS(Int)=    0.1309725923
 Iter  16:  RMS(Cart)=    0.0997907594 RMS(Int)=    0.1309731811
 Iter  17:  RMS(Cart)=    0.0997907636 RMS(Int)=    0.1309737202
 Iter  18:  RMS(Cart)=    0.0997907673 RMS(Int)=    0.1309742147
 Iter  19:  RMS(Cart)=    0.0997907707 RMS(Int)=    0.1309746691
 Iter  20:  RMS(Cart)=    0.0997907738 RMS(Int)=    0.1309750874
 Iter  21:  RMS(Cart)=    0.0997907767 RMS(Int)=    0.1309754732
 Iter  22:  RMS(Cart)=    0.0997907793 RMS(Int)=    0.1309758298
 Iter  23:  RMS(Cart)=    0.0997907817 RMS(Int)=    0.1309761598
 Iter  24:  RMS(Cart)=    0.0997907839 RMS(Int)=    0.1309764657
 Iter  25:  RMS(Cart)=    0.0997907860 RMS(Int)=    0.1309767498
 Iter  26:  RMS(Cart)=    0.0997907879 RMS(Int)=    0.1309770141
 Iter  27:  RMS(Cart)=    0.0997907896 RMS(Int)=    0.1309772603
 Iter  28:  RMS(Cart)=    0.0997907912 RMS(Int)=    0.1309774900
 Iter  29:  RMS(Cart)=    0.0997907928 RMS(Int)=    0.1309777046
 Iter  30:  RMS(Cart)=    0.0997907942 RMS(Int)=    0.1309779053
 Iter  31:  RMS(Cart)=    0.0997907955 RMS(Int)=    0.1309780934
 Iter  32:  RMS(Cart)=    0.0997907967 RMS(Int)=    0.1309782698
 Iter  33:  RMS(Cart)=    0.0997907979 RMS(Int)=    0.1309784355
 Iter  34:  RMS(Cart)=    0.0997907990 RMS(Int)=    0.1309785913
 Iter  35:  RMS(Cart)=    0.0997908000 RMS(Int)=    0.1309787380
 Iter  36:  RMS(Cart)=    0.0997908009 RMS(Int)=    0.1309788762
 Iter  37:  RMS(Cart)=    0.0997908018 RMS(Int)=    0.1309790066
 Iter  38:  RMS(Cart)=    0.0997908027 RMS(Int)=    0.1309791298
 Iter  39:  RMS(Cart)=    0.0997908035 RMS(Int)=    0.1309792463
 Iter  40:  RMS(Cart)=    0.0997908043 RMS(Int)=    0.1309793565
 Iter  41:  RMS(Cart)=    0.0997908050 RMS(Int)=    0.1309794609
 Iter  42:  RMS(Cart)=    0.0997908057 RMS(Int)=    0.1309795599
 Iter  43:  RMS(Cart)=    0.0997908063 RMS(Int)=    0.1309796538
 Iter  44:  RMS(Cart)=    0.0997908069 RMS(Int)=    0.1309797431
 Iter  45:  RMS(Cart)=    0.0997908075 RMS(Int)=    0.1309798279
 Iter  46:  RMS(Cart)=    0.0997908080 RMS(Int)=    0.1309799086
 Iter  47:  RMS(Cart)=    0.0997908086 RMS(Int)=    0.1309799854
 Iter  48:  RMS(Cart)=    0.0997908091 RMS(Int)=    0.1309800586
 Iter  49:  RMS(Cart)=    0.0997908095 RMS(Int)=    0.1309801285
 Iter  50:  RMS(Cart)=    0.0997908100 RMS(Int)=    0.1309801951
 Iter  51:  RMS(Cart)=    0.0997908104 RMS(Int)=    0.1309802587
 Iter  52:  RMS(Cart)=    0.0997908108 RMS(Int)=    0.1309803195
 Iter  53:  RMS(Cart)=    0.0997908112 RMS(Int)=    0.1309803776
 Iter  54:  RMS(Cart)=    0.0997908116 RMS(Int)=    0.1309804332
 Iter  55:  RMS(Cart)=    0.0997908120 RMS(Int)=    0.1309804865
 Iter  56:  RMS(Cart)=    0.0997908123 RMS(Int)=    0.1309805375
 Iter  57:  RMS(Cart)=    0.0997908126 RMS(Int)=    0.1309805864
 Iter  58:  RMS(Cart)=    0.0997908129 RMS(Int)=    0.1309806333
 Iter  59:  RMS(Cart)=    0.0997908132 RMS(Int)=    0.1309806783
 Iter  60:  RMS(Cart)=    0.0997908135 RMS(Int)=    0.1309807215
 Iter  61:  RMS(Cart)=    0.0997908138 RMS(Int)=    0.1309807630
 Iter  62:  RMS(Cart)=    0.0997908141 RMS(Int)=    0.1309808029
 Iter  63:  RMS(Cart)=    0.0997908143 RMS(Int)=    0.1309808413
 Iter  64:  RMS(Cart)=    0.0997908146 RMS(Int)=    0.1309808782
 Iter  65:  RMS(Cart)=    0.0997908148 RMS(Int)=    0.1309809137
 Iter  66:  RMS(Cart)=    0.0997908151 RMS(Int)=    0.1309809479
 Iter  67:  RMS(Cart)=    0.0997908153 RMS(Int)=    0.1309809809
 Iter  68:  RMS(Cart)=    0.0997908155 RMS(Int)=    0.1309810127
 Iter  69:  RMS(Cart)=    0.0997908157 RMS(Int)=    0.1309810434
 Iter  70:  RMS(Cart)=    0.0997908159 RMS(Int)=    0.1309810729
 Iter  71:  RMS(Cart)=    0.0997908161 RMS(Int)=    0.1309811015
 Iter  72:  RMS(Cart)=    0.0997908163 RMS(Int)=    0.1309811290
 Iter  73:  RMS(Cart)=    0.0997908165 RMS(Int)=    0.1309811557
 Iter  74:  RMS(Cart)=    0.0997908166 RMS(Int)=    0.1309811814
 Iter  75:  RMS(Cart)=    0.0997908168 RMS(Int)=    0.1309812062
 Iter  76:  RMS(Cart)=    0.0997908170 RMS(Int)=    0.1309812303
 Iter  77:  RMS(Cart)=    0.0997908171 RMS(Int)=    0.1309812536
 Iter  78:  RMS(Cart)=    0.0997908173 RMS(Int)=    0.1309812761
 Iter  79:  RMS(Cart)=    0.0997908174 RMS(Int)=    0.1309812979
 Iter  80:  RMS(Cart)=    0.0997908175 RMS(Int)=    0.1309813190
 Iter  81:  RMS(Cart)=    0.0997908177 RMS(Int)=    0.1309813394
 Iter  82:  RMS(Cart)=    0.0997908178 RMS(Int)=    0.1309813592
 Iter  83:  RMS(Cart)=    0.0997908179 RMS(Int)=    0.1309813784
 Iter  84:  RMS(Cart)=    0.0997908181 RMS(Int)=    0.1309813971
 Iter  85:  RMS(Cart)=    0.0997908182 RMS(Int)=    0.1309814151
 Iter  86:  RMS(Cart)=    0.0997908183 RMS(Int)=    0.1309814327
 Iter  87:  RMS(Cart)=    0.0997908184 RMS(Int)=    0.1309814497
 Iter  88:  RMS(Cart)=    0.0997908185 RMS(Int)=    0.1309814662
 Iter  89:  RMS(Cart)=    0.0997908186 RMS(Int)=    0.1309814822
 Iter  90:  RMS(Cart)=    0.0997908187 RMS(Int)=    0.1309814978
 Iter  91:  RMS(Cart)=    0.0997908188 RMS(Int)=    0.1309815130
 Iter  92:  RMS(Cart)=    0.0997908189 RMS(Int)=    0.1309815277
 Iter  93:  RMS(Cart)=    0.0997908190 RMS(Int)=    0.1309815420
 Iter  94:  RMS(Cart)=    0.0997908191 RMS(Int)=    0.1309815559
 Iter  95:  RMS(Cart)=    0.0997908192 RMS(Int)=    0.1309815694
 Iter  96:  RMS(Cart)=    0.0997908193 RMS(Int)=    0.1309815826
 Iter  97:  RMS(Cart)=    0.0997908194 RMS(Int)=    0.1309815954
 Iter  98:  RMS(Cart)=    0.0997908195 RMS(Int)=    0.1309816079
 Iter  99:  RMS(Cart)=    0.0997908196 RMS(Int)=    0.1309816200
 RMS(Cart) too big - taking linear step, building new B-matrix and trying again
 Initial RMS(Int)=             nan
Transforming coordinates:
 Iter   0:  RMS(Cart)=    0.0997863909 RMS(Int)=    0.1309543300
 Iter   1:  RMS(Cart)=    0.0997933801 RMS(Int)=    0.1309566923
 Iter   2:  RMS(Cart)=    0.0997935692 RMS(Int)=    0.1309591352
 Iter   3:  RMS(Cart)=    0.0997936112 RMS(Int)=    0.1309614880
 Iter   4:  RMS(Cart)=    0.0997936382 RMS(Int)=    0.1309636924
 Iter   5:  RMS(Cart)=    0.0997936601 RMS(Int)=    0.1309657262
 Iter   6:  RMS(Cart)=    0.0997936788 RMS(Int)=    0.1309675861
 Iter   7:  RMS(Cart)=    0.0997936949 RMS(Int)=    0.1309692789
 Iter   8:  RMS(Cart)=    0.0997937090 RMS(Int)=    0.1309708159
 Iter   9:  RMS(Cart)=    0.0997937213 RMS(Int)=    0.1309722103
 Iter  10:  RMS(Cart)=    0.0997937321 RMS(Int)=    0.1309734755
 Iter  11:  RMS(Cart)=    0.0997937417 RMS(Int)=    0.1309746244
 Iter  12:  RMS(Cart)=    0.0997937503 RMS(Int)=    0.1309756690
 Iter  13:  RMS(Cart)=    0.0997937579 RMS(Int)=    0.1309766202
 Iter  14:  RMS(Cart)=    0.0997937648 RMS(Int)=    0.1309774879
 Iter  15:  RMS(Cart)=    0.0997937709 RMS(Int)=    0.1309782808
 Iter  16:  RMS(Cart)=    0.0997937765 RMS(Int)=    0.1309790067
 Iter  17:  RMS(Cart)=    0.0997937816 RMS(Int)=    0.1309796726
 Iter  18:  RMS(Cart)=    0.0997937862 RMS(Int)=    0.1309802844
 Iter  19:  RMS(Cart)=    0.0997937904 RMS(Int)=    0.1309808477
 Iter  20:  RMS(Cart)=    0.0997937943 RMS(Int)=    0.1309813673
 Iter  21:  RMS(Cart)=    0.0997937978 RMS(Int)=    0.1309818474
 Iter  22:  RMS(Cart)=    0.0997938010 RMS(Int)=    0.1309822917
 Iter  23:  RMS(Cart)=    0.0997938040 RMS(Int)=    0.1309827037
 Iter  24:  RMS(Cart)=    0.0997938068 RMS(Int)=    0.1309830863
 Iter  25:  RMS(Cart)=    0.0997938093 RMS(Int)=    0.1309834422
 Iter  26:  RMS(Cart)=    0.0997938117 RMS(Int)=    0.1309837737
 Iter  27:  RMS(Cart)=    0.0997938139 RMS(Int)=    0.1309840829
 Iter  28:  RMS(Cart)=    0.0997938160 RMS(Int)=    0.1309843719
 Iter  29:  RMS(Cart)=    0.0997938179 RMS(Int)=    0.1309846422
 Iter  30:  RMS(Cart)=    0.0997938197 RMS(Int)=    0.1309848955
 Iter  31:  RMS(Cart)=    0.0997938213 RMS(Int)=    0.1309851330
 Iter  32:  RMS(Cart)=    0.0997938229 RMS(Int)=    0.1309853561
 Iter  33:  RMS(Cart)=    0.0997938244 RMS(Int)=    0.1309855659
 Iter  34:  RMS(Cart)=    0.0997938257 RMS(Int)=    0.1309857634
 Iter  35:  RMS(Cart)=    0.0997938270 RMS(Int)=    0.1309859495
 Iter  36:  RMS(Cart)=    0.0997938283 RMS(Int)=    0.1309861252
 Iter  37:  RMS(Cart)=    0.0997938294 RMS(Int)=    0.1309862910
 Iter  38:  RMS(Cart)=    0.0997938305 RMS(Int)=    0.1309864478
 Iter  39:  RMS(Cart)=    0.0997938315 RMS(Int)=    0.1309865963
 Iter  40:  RMS(Cart)=    0.0997938325 RMS(Int)=    0.1309867368
 Iter  41:  RMS(Cart)=    0.0997938334 RMS(Int)=    0.1309868701
 Iter  42:  RMS(Cart)=    0.0997938343 RMS(Int)=    0.1309869966
 Iter  43:  RMS(Cart)=    0.0997938351 RMS(Int)=    0.1309871168
 Iter  44:  RMS(Cart)=    0.0997938359 RMS(Int)=    0.1309872310
 Iter  45:  RMS(Cart)=    0.0997938366 RMS(Int)=    0.1309873397
 Iter  46:  RMS(Cart)=    0.0997938373 RMS(Int)=    0.1309874431
 Iter  47:  RMS(Cart)=    0.0997938380 RMS(Int)=    0.1309875417
 Iter  48:  RMS(Cart)=    0.0997938386 RMS(Int)=    0.1309876357
 Iter  49:  RMS(Cart)=    0.0997938393 RMS(Int)=    0.1309877254
 Iter  50:  RMS(Cart)=    0.0997938398 RMS(Int)=    0.1309878111
 Iter  51:  RMS(Cart)=    0.0997938404 RMS(Int)=    0.1309878929
 Iter  52:  RMS(Cart)=    0.0997938409 RMS(Int)=    0.1309879712
 Iter  53:  RMS(Cart)=    0.0997938414 RMS(Int)=    0.1309880461
 Iter  54:  RMS(Cart)=    0.0997938419 RMS(Int)=    0.1309881178
 Iter  55:  RMS(Cart)=    0.0997938424 RMS(Int)=    0.1309881865
 Iter  56:  RMS(Cart)=    0.0997938428 RMS(Int)=    0.1309882523
 Iter  57:  RMS(Cart)=    0.0997938433 RMS(Int)=    0.1309883154
 Iter  58:  RMS(Cart)=    0.0997938437 RMS(Int)=    0.1309883760
 Iter  59:  RMS(Cart)=    0.0997938441 RMS(Int)=    0.1309884342
 Iter  60:  RMS(Cart)=    0.0997938444 RMS(Int)=    0.1309884901
 Iter  61:  RMS(Cart)=    0.0997938448 RMS(Int)=    0.1309885438
 Iter  62:  RMS(Cart)=    0.0997938452 RMS(Int)=    0.1309885955
 Iter  63:  RMS(Cart)=    0.0997938455 RMS(Int)=    0.1309886452
 Iter  64:  RMS(Cart)=    0.0997938458 RMS(Int)=    0.1309886931
 Iter  65:  RMS(Cart)=    0.0997938461 RMS(Int)=    0.1309887391
 Iter  66:  RMS(Cart)=    0.0997938464 RMS(Int)=    0.1309887835
 Iter  67:  RMS(Cart)=    0.0997938467 RMS(Int)=    0.1309888263
 Iter  68:  RMS(Cart)=    0.0997938470 RMS(Int)=    0.1309888676
 Iter  69:  RMS(Cart)=    0.0997938473 RMS(Int)=    0.1309889074
 Iter  70:  RMS(Cart)=    0.0997938475 RMS(Int)=    0.1309889459
 Iter  71:  RMS(Cart)=    0.0997938478 RMS(Int)=    0.1309889830
 Iter  72:  RMS(Cart)=    0.0997938480 RMS(Int)=    0.1309890188
 Iter  73:  RMS(Cart)=    0.0997938482 RMS(Int)=    0.1309890535
 Iter  74:  RMS(Cart)=    0.0997938485 RMS(Int)=    0.1309890869
 Iter  75:  RMS(Cart)=    0.0997938487 RMS(Int)=    0.1309891193
 Iter  76:  RMS(Cart)=    0.0997938489 RMS(Int)=    0.1309891506
 Iter  77:  RMS(Cart)=    0.0997938491 RMS(Int)=    0.1309891810
 Iter  78:  RMS(Cart)=    0.0997938493 RMS(Int)=    0.1309892103
 Iter  79:  RMS(Cart)=    0.0997938495 RMS(Int)=    0.1309892387
 Iter  80:  RMS(Cart)=    0.0997938497 RMS(Int)=    0.1309892663
 Iter  81:  RMS(Cart)=    0.0997938499 RMS(Int)=    0.1309892929
 Iter  82:  RMS(Cart)=    0.0997938500 RMS(Int)=    0.1309893188
 Iter  83:  RMS(Cart)=    0.0997938502 RMS(Int)=    0.1309893439
 Iter  84:  RMS(Cart)=    0.0997938504 RMS(Int)=    0.1309893682
 Iter  85:  RMS(Cart)=    0.0997938505 RMS(Int)=    0.1309893918
 Iter  86:  RMS(Cart)=    0.0997938507 RMS(Int)=    0.1309894147
 Iter  87:  RMS(Cart)=    0.0997938508 RMS(Int)=    0.1309894369
 Iter  88:  RMS(Cart)=    0.0997938510 RMS(Int)=    0.1309894585
 Iter  89:  RMS(Cart)=    0.0997938511 RMS(Int)=    0.1309894795
 Iter  90:  RMS(Cart)=    0.0997938512 RMS(Int)=    0.1309894999
 Iter  91:  RMS(Cart)=    0.0997938514 RMS(Int)=    0.1309895197
 Iter  92:  RMS(Cart)=    0.0997938515 RMS(Int)=    0.1309895390
 Iter  93:  RMS(Cart)=    0.0997938516 RMS(Int)=    0.1309895577
 Iter  94:  RMS(Cart)=    0.0997938518 RMS(Int)=    0.1309895759
 Iter  95:  RMS(Cart)=    0.0997938519 RMS(Int)=    0.1309895937
 Iter  96:  RMS(Cart)=    0.0997938520 RMS(Int)=    0.1309896109
 Iter  97:  RMS(Cart)=    0.0997938521 RMS(Int)=    0.1309896277
 Iter  98:  RMS(Cart)=    0.0997938522 RMS(Int)=    0.1309896440
 Iter  99:  RMS(Cart)=    0.0997938523 RMS(Int)=    0.1309896600
 RMS(Cart) too big - taking linear step, building new B-matrix and trying again
 Initial RMS(Int)=             nan
Transforming coordinates:
 Iter   0:  RMS(Cart)=    0.0997884940 RMS(Int)=    0.1309547834
 Iter   1:  RMS(Cart)=    0.0997961032 RMS(Int)=    0.1309579576
 Iter   2:  RMS(Cart)=    0.0997963095 RMS(Int)=    0.1309610594
 Iter   3:  RMS(Cart)=    0.0997963554 RMS(Int)=    0.1309639653
 Iter   4:  RMS(Cart)=    0.0997963855 RMS(Int)=    0.1309666462
 Iter   5:  RMS(Cart)=    0.0997964103 RMS(Int)=    0.1309690980
 Iter   6:  RMS(Cart)=    0.0997964316 RMS(Int)=    0.1309713295
 Iter   7:  RMS(Cart)=    0.0997964502 RMS(Int)=    0.1309733557
 Iter   8:  RMS(Cart)=    0.0997964664 RMS(Int)=    0.1309751938
 Iter   9:  RMS(Cart)=    0.0997964808 RMS(Int)=    0.1309768616
 Iter  10:  RMS(Cart)=    0.0997964934 RMS(Int)=    0.1309783762
 Iter  11:  RMS(Cart)=    0.0997965047 RMS(Int)=    0.1309797533
 Iter  12:  RMS(Cart)=    0.0997965148 RMS(Int)=    0.1309810072
 Iter  13:  RMS(Cart)=    0.0997965239 RMS(Int)=    0.1309821511
 Iter  14:  RMS(Cart)=    0.0997965321 RMS(Int)=    0.1309831963
 Iter  15:  RMS(Cart)=    0.0997965394 RMS(Int)=    0.1309841533
 Iter  16:  RMS(Cart)=    0.0997965461 RMS(Int)=    0.1309850310
 Iter  17:  RMS(Cart)=    0.0997965522 RMS(Int)=    0.1309858376
 Iter  18:  RMS(Cart)=    0.0997965578 RMS(Int)=    0.1309865802
 Iter  19:  RMS(Cart)=    0.0997965629 RMS(Int)=    0.1309872651
 Iter  20:  RMS(Cart)=    0.0997965676 RMS(Int)=    0.1309878980
 Iter  21:  RMS(Cart)=    0.0997965718 RMS(Int)=    0.1309884837
 Iter  22:  RMS(Cart)=    0.0997965758 RMS(Int)=    0.1309890268
 Iter  23:  RMS(Cart)=    0.0997965795 RMS(Int)=    0.1309895311
 Iter  24:  RMS(Cart)=    0.0997965828 RMS(Int)=    0.1309900003
 Iter  25:  RMS(Cart)=    0.0997965860 RMS(Int)=    0.1309904372
 Iter  26:  RMS(Cart)=    0.0997965889 RMS(Int)=    0.1309908449
 Iter  27:  RMS(Cart)=    0.0997965916 RMS(Int)=    0.1309912258
 Iter  28:  RMS(Cart)=    0.0997965941 RMS(Int)=    0.1309915822
 Iter  29:  RMS(Cart)=    0.0997965965 RMS(Int)=    0.1309919160
 Iter  30:  RMS(Cart)=    0.0997965987 RMS(Int)=    0.1309922292
 Iter  31:  RMS(Cart)=    0.0997966008 RMS(Int)=    0.1309925233
 Iter  32:  RMS(Cart)=    0.0997966027 RMS(Int)=    0.1309927998
 Iter  33:  RMS(Cart)=    0.0997966045 RMS(Int)=    0.1309930602
 Iter  34:  RMS(Cart)=    0.0997966063 RMS(Int)=    0.1309933055
 Iter  35:  RMS(Cart)=    0.0997966079 RMS(Int)=    0.1309935370
 Iter  36:  RMS(Cart)=    0.0997966094 RMS(Int)=    0.1309937557
 Iter  37:  RMS(Cart)=    0.0997966108 RMS(Int)=    0.1309939624
 Iter  38:  RMS(Cart)=    0.0997966122 RMS(Int)=    0.1309941580
 Iter  39:  RMS(Cart)=    0.0997966135 RMS(Int)=    0.1309943434
 Iter  40:  RMS(Cart)=    0.0997966147 RMS(Int)=    0.1309945191
 Iter  41:  RMS(Cart)=    0.0997966158 RMS(Int)=    0.1309946858
 Iter  42:  RMS(Cart)=    0.0997966169 RMS(Int)=    0.1309948442
 Iter  43:  RMS(Cart)=    0.0997966180 RMS(Int)=    0.1309949948
 Iter  44:  RMS(Cart)=    0.0997966190 RMS(Int)=    0.1309951380
 Iter  45:  RMS(Cart)=    0.0997966199 RMS(Int)=    0.1309952744
 Iter  46:  RMS(Cart)=    0.0997966208 RMS(Int)=    0.1309954043
 Iter  47:  RMS(Cart)=    0.0997966216 RMS(Int)=    0.1309955282
 Iter  48:  RMS(Cart)=    0.0997966224 RMS(Int)=    0.1309956465
 Iter  49:  RMS(Cart)=    0.0997966232 RMS(Int)=    0.1309957594
 Iter  50:  RMS(Cart)=    0.0997966239 RMS(Int)=    0.1309958673
 Iter  51:  RMS(Cart)=    0.0997966247 RMS(Int)=    0.1309959705
 Iter  52:  RMS(Cart)=    0.0997966253 RMS(Int)=    0.1309960692
 Iter  53:  RMS(Cart)=    0.0997966260 RMS(Int)=    0.1309961637
 Iter  54:  RMS(Cart)=    0.0997966266 RMS(Int)=    0.1309962542
 Iter  55:  RMS(Cart)=    0.0997966272 RMS(Int)=    0.1309963410
 Iter  56:  RMS(Cart)=    0.0997966277 RMS(Int)=    0.1309964242
 Iter  57:  RMS(Cart)=    0.0997966283 RMS(Int)=    0.1309965041
 Iter  58:  RMS(Cart)=    0.0997966288 RMS(Int)=    0.1309965808
 Iter  59:  RMS(Cart)=    0.0997966293 RMS(Int)=    0.1309966545
 Iter  60:  RMS(Cart)=    0.0997966298 RMS(Int)=    0.1309967253
 Iter  61:  RMS(Cart)=    0.0997966303 RMS(Int)=    0.1309967934
 Iter  62:  RMS(Cart)=    0.0997966307 RMS(Int)=    0.1309968589
 Iter  63:  RMS(Cart)=    0.0997966311 RMS(Int)=    0.1309969220
 Iter  64:  RMS(Cart)=    0.0997966315 RMS(Int)=    0.1309969827
 Iter  65:  RMS(Cart)=    0.0997966319 RMS(Int)=    0.1309970413
 Iter  66:  RMS(Cart)=    0.0997966323 RMS(Int)=    0.1309970977
 Iter  67:  RMS(Cart)=    0.0997966327 RMS(Int)=    0.1309971521
 Iter  68:  RMS(Cart)=    0.0997966330 RMS(Int)=    0.1309972046
 Iter  69:  RMS(Cart)=    0.0997966334 RMS(Int)=    0.1309972552
 Iter  70:  RMS(Cart)=    0.0997966337 RMS(Int)=    0.1309973041
 Iter  71:  RMS(Cart)=    0.0997966340 RMS(Int)=    0.1309973514
 Iter  72:  RMS(Cart)=    0.0997966343 RMS(Int)=    0.1309973971
 Iter  73:  RMS(Cart)=    0.0997966346 RMS(Int)=    0.1309974412
 Iter  74:  RMS(Cart)=    0.0997966349 RMS(Int)=    0.1309974839
 Iter  75:  RMS(Cart)=    0.0997966352 RMS(Int)=    0.1309975252
 Iter  76:  RMS(Cart)=    0.0997966355 RMS(Int)=    0.1309975651
 Iter  77:  RMS(Cart)=    0.0997966357 RMS(Int)=    0.1309976038
 Iter  78:  RMS(Cart)=    0.0997966360 RMS(Int)=    0.1309976413
 Iter  79:  RMS(Cart)=    0.0997966362 RMS(Int)=    0.1309976775
 Iter  80:  RMS(Cart)=    0.0997966365 RMS(Int)=    0.1309977127
 Iter  81:  RMS(Cart)=    0.0997966367 RMS(Int)=    0.1309977468
 Iter  82:  RMS(Cart)=    0.0997966369 RMS(Int)=    0.1309977799
 Iter  83:  RMS(Cart)=    0.0997966372 RMS(Int)=    0.1309978119
 Iter  84:  RMS(Cart)=    0.0997966374 RMS(Int)=    0.1309978430
 Iter  85:  RMS(Cart)=    0.0997966376 RMS(Int)=    0.1309978732
 Iter  86:  RMS(Cart)=    0.0997966378 RMS(Int)=    0.1309979025
 Iter  87:  RMS(Cart)=    0.0997966380 RMS(Int)=    0.1309979310
 Iter  88:  RMS(Cart)=    0.0997966381 RMS(Int)=    0.1309979587
 Iter  89:  RMS(Cart)=    0.0997966383 RMS(Int)=    0.1309979855
 Iter  90:  RMS(Cart)=    0.0997966385 RMS(Int)=    0.1309980116
 Iter  91:  RMS(Cart)=    0.0997966387 RMS(Int)=    0.1309980370
 Iter  92:  RMS(Cart)=    0.0997966388 RMS(Int)=    0.1309980617
 Iter  93:  RMS(Cart)=    0.0997966390 RMS(Int)=    0.1309980857
 Iter  94:  RMS(Cart)=    0.0997966392 RMS(Int)=    0.1309981091
[...]

                    ********************************
                    * MULLIKEN POPULATION ANALYSIS *
                    ********************************

-----------------------
MULLIKEN ATOMIC CHARGES
-----------------------
   0 N :   -1.014944
   1 H :    0.338352
   2 H :    0.338259
   3 H :    0.338333
Sum of atomic charges:    0.0000000

--------------------------------
MULLIKEN REDUCED ORBITAL CHARGES
--------------------------------
  0 N s       :     3.542612  s :     3.542612
      pz      :     2.000000  p :     4.452372
      px      :     1.226074
      py      :     1.226298
      dz2     :     0.005129  d :     0.019960
      dxz     :     0.000000
      dyz     :     0.000000
      dx2y2   :     0.007432
      dxy     :     0.007400
  1 H s       :     0.661648  s :     0.661648
  2 H s       :     0.661741  s :     0.661741
  3 H s       :     0.661667  s :     0.661667


                     *******************************
                     * LOEWDIN POPULATION ANALYSIS *
                     *******************************

----------------------
LOEWDIN ATOMIC CHARGES
----------------------
   0 N :   -0.685410
   1 H :    0.228491
   2 H :    0.228474
   3 H :    0.228444

-------------------------------
LOEWDIN REDUCED ORBITAL CHARGES
-------------------------------
  0 N s       :     3.190670  s :     3.190670
      pz      :     2.000000  p :     4.462617
      px      :     1.231218
      py      :     1.231399
      dz2     :     0.004381  d :     0.032123
      dxz     :     0.000000
      dyz     :     0.000000
      dx2y2   :     0.013893
      dxy     :     0.013849
  1 H s       :     0.771509  s :     0.771509
  2 H s       :     0.771526  s :     0.771526
  3 H s       :     0.771556  s :     0.771556


                      *****************************
                      * MAYER POPULATION ANALYSIS *
                      *****************************

  NA   - Mulliken gross atomic population
  ZA   - Total nuclear charge
  QA   - Mulliken gross atomic charge
  VA   - Mayer's total valence
  BVA  - Mayer's bonded valence
  FA   - Mayer's free valence

  ATOM       NA         ZA         QA         VA         BVA        FA
  0 N      8.0149     7.0000    -1.0149     2.5914     2.5914     0.0000
  1 H      0.6616     1.0000     0.3384     0.8640     0.8640     0.0000
  2 H      0.6617     1.0000     0.3383     0.8641     0.8641     0.0000
  3 H      0.6617     1.0000     0.3383     0.8640     0.8640     0.0000

  Mayer bond orders larger than 0.1
B(  0-N ,  1-H ) :   0.8637 B(  0-N ,  2-H ) :   0.8639 B(  0-N ,  3-H ) :   0.8638 


-------
TIMINGS
-------

Total SCF time: 0 days 0 hours 0 min 0 sec 

Total time                  ....       0.729 sec
Sum of individual times     ....       0.714 sec  ( 97.9%)

Fock matrix formation       ....       0.667 sec  ( 91.4%)
  XC integration            ....       0.032 sec  (  4.9% of F)
    Basis function eval.    ....       0.008 sec  ( 25.1% of XC)
    Density eval.           ....       0.004 sec  ( 11.9% of XC)
    XC-Functional eval.     ....       0.005 sec  ( 16.9% of XC)
    XC-Potential eval.      ....       0.003 sec  (  8.3% of XC)
Diagonalization             ....       0.000 sec  (  0.0%)
Density matrix formation    ....       0.000 sec  (  0.0%)
Population analysis         ....       0.006 sec  (  0.9%)
Initial guess               ....       0.001 sec  (  0.2%)
Orbital Transformation      ....       0.000 sec  (  0.0%)
Orbital Orthonormalization  ....       0.000 sec  (  0.0%)
DIIS solution               ....       0.000 sec  (  0.0%)
SOSCF solution              ....       0.001 sec  (  0.2%)
Grid generation             ....       0.038 sec  (  5.2%)


-------------------------------------------------------------------------------
                          DFT DISPERSION CORRECTION                            
                                                                               
                              DFTD3 V3.1  Rev 1                                
                          USING Becke-Johnson damping                          
-------------------------------------------------------------------------------
The PBEh-3c composite method is recognized
Using three-body term ABC
Active option DFTDOPT                   ...         4   

molecular C6(AA) [au] = 84.654235 


            DFT-D V3
 parameters
 s6 scaling factor         :     1.0000 
 a1 scaling factor         :     0.4860 
 s8 scaling factor         :     0.0000 
 a2 scaling factor         :     4.5000 
 Damping factor alpha9(ATM):    16.0000 
 ad hoc parameters k1-k3   :    16.0000     1.3333    -4.0000 

 Edisp/kcal,au: -0.278301522549  -0.000443501659 
 E6   /kcal   :  -0.278305781 
 E8   /kcal   :  -0.000000000 
 E6(ABC)      :   0.000004258 
 % E8         :   0.000000000 
 % E6(ABC)    :  -0.001530101 

-------------------------   ----------------
Dispersion correction           -0.000443502
-------------------------   ----------------

------------------   -----------------
gCP correction             0.000972373
------------------   -----------------

-------------------------   --------------------
FINAL SINGLE POINT ENERGY       -56.419104725083
-------------------------   --------------------

                                *** OPTIMIZATION RUN DONE ***

                            ***************************************
                            *     ORCA property calculations      *
                            ***************************************

                                    ---------------------
                                    Active property flags
                                    ---------------------
   (+) Dipole Moment


------------------------------------------------------------------------------
                       ORCA ELECTRIC PROPERTIES CALCULATION
------------------------------------------------------------------------------

Dipole Moment Calculation                       ... on
Quadrupole Moment Calculation                   ... off
Polarizability Calculation                      ... off
GBWName                                         ... ammonia.gbw
Electron density file                           ... ammonia.scfp.tmp
The origin for moment calculation is the CENTER OF MASS  = (-0.000002,  0.000332  0.000043)

-------------
DIPOLE MOMENT
-------------
                                X             Y             Z
Electronic contribution:     -0.00008       0.00032       0.00000
Nuclear contribution   :      0.00001      -0.00071      -0.00009
                        -----------------------------------------
Total Dipole Moment    :     -0.00007      -0.00039      -0.00009
                        -----------------------------------------
Magnitude (a.u.)       :      0.00041
Magnitude (Debye)      :      0.00104



           ************************************************************
           *        Program running with 4 parallel MPI-processes     *
           *              working on a common directory               *
           ************************************************************

-------------------------------------------------------------------------------
                               ORCA SCF HESSIAN
-------------------------------------------------------------------------------

Hessian of the Kohn-Sham DFT energy:
Kohn-Sham wavefunction type                      ... RKS
Hartree-Fock exchange scaling                    ...    0.420
Number of operators                              ...    1
Number of atoms                                  ...    4
Basis set dimensions                             ...   21
Integral neglect threshold                       ... 2.5e-11
Integral primitive cutoff                        ... 2.5e-12

Setting up DFT Hessian calculations              ... 
Electron density on the grid                     ... found on disk
Building xc-kernel on the grid                   ... done   (      0.0 sec)
                                                     done   (      0.0 sec)

Nuclear repulsion Hessian                        ... done   (      0.0 sec)

----------------------------------------------
Forming right-hand sides of CP-SCF equations     ...
----------------------------------------------
One electron integral derivatives                ... done   (      0.2 sec)
Transforming the overlap derivative matrices     ... done   (      0.5 sec)
Making the Q(x) pseudodensities                  ... done   (      0.0 sec)
Adding the E*S(x)*S(y) terms to the Hessian      ... done   (      0.0 sec)
Calculating energy weighted overlap derivatives  ... done   (      0.0 sec)
Two electron integral derivatives (RI)           ... done   (      0.4 sec)
Exchange-correlation integral derivatives        ... done   (      0.1 sec)
tr(F(y)Q(x)) contribution to the Hessian         ... done   (      0.0 sec)
Response fock operator R(S(x)) (RI)              ... done   (      0.3 sec)
XC Response fock operator R(S(x))                ... done   (      0.0 sec)
tr(F(y)S(x)) contribution to the Hessian         ... done   (      0.0 sec)
Transforming and finalizing RHSs                 ... done   (      0.0 sec)

----------------------------------------------
Solving the CP-SCF equations (RI)                ...
----------------------------------------------
     CP-SCF ITERATION   0: 
     CP-SCF ITERATION   1:      0.000106218015
     CP-SCF ITERATION   2:      0.000000186917
     CP-SCF ITERATION   3:      0.000000020647
     CP-SCF ITERATION   4:      0.000000000695

                                                 ... done   (      1.5 sec)
Forming perturbed density Hessian contributions  ... done   (      0.0 sec)
Making the perturbed densities                   ... done   (      0.0 sec)
2nd integral derivative contribs (RI)            ... done   (      0.4 sec)
Exchange-correlation Hessian                     ... done   (      0.3 sec)
Dispersion correction in the Hessian             ... done   (      1.0 sec)
gCP correction in the Hessian                    ... done   (      0.0 sec)
Dipol derivatives                                ... done   (      0.2 sec)

Total SCF Hessian time: 0 days 0 hours 0 min 4 sec 

Writing the Hessian file to the disk             ... done


-----------------------
VIBRATIONAL FREQUENCIES
-----------------------

   0:         0.00 cm**-1
   1:         0.00 cm**-1
   2:         0.00 cm**-1
   3:         0.00 cm**-1
   4:         0.00 cm**-1
   5:         0.00 cm**-1
   6:      -882.98 cm**-1 ***imaginary mode***
   7:      1636.17 cm**-1
   8:      1636.75 cm**-1
   9:      3733.76 cm**-1
  10:      3942.95 cm**-1
  11:      3943.89 cm**-1


------------
NORMAL MODES
------------

These modes are the cartesian displacements weighted by the diagonal matrix
M(i,i)=1/sqrt(m[i]) where m[i] is the mass of the displaced atom
Thus, these vectors are normalized but *not* orthogonal

                  0          1          2          3          4          5    
      0       0.000000   0.000000   0.000000   0.000000   0.000000   0.000000
      1       0.000000   0.000000   0.000000   0.000000   0.000000   0.000000
      2       0.000000   0.000000   0.000000   0.000000   0.000000   0.000000
      3       0.000000   0.000000   0.000000   0.000000   0.000000   0.000000
      4       0.000000   0.000000   0.000000   0.000000   0.000000   0.000000
      5       0.000000   0.000000   0.000000   0.000000   0.000000   0.000000
      6       0.000000   0.000000   0.000000   0.000000   0.000000   0.000000
      7       0.000000   0.000000   0.000000   0.000000   0.000000   0.000000
      8       0.000000   0.000000   0.000000   0.000000   0.000000   0.000000
      9       0.000000   0.000000   0.000000   0.000000   0.000000   0.000000
     10       0.000000   0.000000   0.000000   0.000000   0.000000   0.000000
     11       0.000000   0.000000   0.000000   0.000000   0.000000   0.000000
                  6          7          8          9         10         11    
      0      -0.000002  -0.018732  -0.078052  -0.000008   0.080772   0.031054
      1       0.000000  -0.078119   0.018752   0.000135   0.031039  -0.080708
      2       0.123688  -0.000000  -0.000001  -0.000005   0.000001   0.000001
      3      -0.000014  -0.303507   0.160560  -0.525429  -0.737306   0.050632
      4      -0.000012   0.562631  -0.477399  -0.240779  -0.338578   0.009901
      5      -0.573062  -0.000024  -0.000020   0.000013   0.000021  -0.000001
      6       0.000030   0.455633   0.123741   0.471716  -0.361942  -0.555611
      7      -0.000016   0.599727   0.282434  -0.334421   0.268608   0.385599
      8      -0.573123  -0.000005   0.000029   0.000030  -0.000024  -0.000036
      9       0.000012   0.108167   0.800300   0.053819  -0.023146   0.073461
     10       0.000025  -0.076827  -0.065615   0.573323  -0.361343   0.725998
     11      -0.572565   0.000032   0.000009   0.000021  -0.000014   0.000029


-----------
IR SPECTRUM
-----------

 Mode    freq (cm**-1)   T**2         TX         TY         TZ
-------------------------------------------------------------------
   7:      1636.17   46.116341  (  1.593198   6.601368   0.000018)
   8:      1636.75   46.150099  (  6.606930  -1.580686   0.000112)
   9:      3733.76    0.000644  ( -0.010454  -0.023118   0.000486)
  10:      3942.95   49.908806  ( -6.598306  -2.524116  -0.000101)
  11:      3943.89   49.913491  ( -2.535661   6.594234  -0.000047)

The first frequency considered to be a vibration is 7
The total number of vibrations considered is 5


--------------------------
THERMOCHEMISTRY AT 298.15K
--------------------------

Temperature         ... 298.15 K
Pressure            ... 1.00 atm
Total Mass          ... 17.03 AMU

Throughout the following assumptions are being made:
  (1) The electronic state is orbitally nondegenerate
  (2) There are no thermally accessible electronically excited states
  (3) Hindered rotations indicated by low frequency modes are not
      treated as such but are treated as vibrations and this may
      cause some error
  (4) All equations used are the standard statistical mechanics
      equations for an ideal gas
  (5) All vibrations are strictly harmonic

freq.    1636.17  E(vib)   ...       0.00 
freq.    1636.75  E(vib)   ...       0.00 
freq.    3733.76  E(vib)   ...       0.00 
freq.    3942.95  E(vib)   ...       0.00 
freq.    3943.89  E(vib)   ...       0.00 

------------
INNER ENERGY
------------

The inner energy is: U= E(el) + E(ZPE) + E(vib) + E(rot) + E(trans)
    E(el)   - is the total energy from the electronic structure calculation
              = E(kin-el) + E(nuc-el) + E(el-el) + E(nuc-nuc)
    E(ZPE)  - the the zero temperature vibrational energy from the frequency calculation
    E(vib)  - the the finite temperature correction to E(ZPE) due to population
              of excited vibrational states
    E(rot)  - is the rotational thermal energy
    E(trans)- is the translational thermal energy

Summary of contributions to the inner energy U:
Electronic energy                ...    -56.41910473 Eh
Zero point energy                ...      0.03392992 Eh      21.29 kcal/mol
Thermal vibrational correction   ...      0.00000555 Eh       0.00 kcal/mol
Thermal rotational correction    ...      0.00141627 Eh       0.89 kcal/mol
Thermal translational correction ...      0.00141627 Eh       0.89 kcal/mol
-----------------------------------------------------------------------
Total thermal energy                    -56.38233671 Eh


Summary of corrections to the electronic energy:
(perhaps to be used in another calculation)
Total thermal correction                  0.00283809 Eh       1.78 kcal/mol
Non-thermal (ZPE) correction              0.03392992 Eh      21.29 kcal/mol
-----------------------------------------------------------------------
Total correction                          0.03676801 Eh      23.07 kcal/mol


--------
ENTHALPY
--------

The enthalpy is H = U + kB*T
                kB is Boltzmann's constant
Total free energy                 ...    -56.38233671 Eh 
Thermal Enthalpy correction       ...      0.00094421 Eh       0.59 kcal/mol
-----------------------------------------------------------------------
Total Enthalpy                    ...    -56.38139250 Eh


Vibrational entropy computed according to the QRRHO of S. Grimme
Chem.Eur.J. 2012 18 9955


-------
ENTROPY
-------

The entropy contributions are T*S = T*(S(el)+S(vib)+S(rot)+S(trans)
     S(el)   - electronic entropy
     S(vib)  - vibrational entropy
     S(rot)  - rotational entropy
     S(trans)- translational entropy
The entropies will be listed as mutliplied by the temperature to get
units of energy

Electronic entropy                ...      0.00000000 Eh      0.00 kcal/mol
Vibrational entropy               ...      0.00000625 Eh      0.00 kcal/mol
Rotational entropy                ...      0.00537086 Eh      3.37 kcal/mol
Translational entropy             ...      0.01636425 Eh     10.27 kcal/mol
-----------------------------------------------------------------------
Final entropy term                ...      0.02174137 Eh     13.64 kcal/mol


CAUTION: The rotational entropy is not quite correctly treated here
         because it includes a symmetry number that is not yet correctly
         implemented in ORCA!
For a nonlinear molecule the correct rotational entropy is:
    S(rot) = R*(ln(qrot/sn)+1.5)
    R    = 8.31441 J/mol/K = 1.987191683e-3 kcal/mol/K
    qrot =  197.7487546
    sn is the rotational symmetry number. We have assumed 3 here
       if it is different for your molecule then you should correct
       the printed rotational entropy by manually evaluating the equation
       as given above

For convenience we print out the resulting values for sn=1 - 12:
 sn= 1  qrot/sn=     197.7488 T*S(rot)=     4.02 kcal/mol T*S(tot)=    14.29 kcal/mol
 sn= 2  qrot/sn=      98.8744 T*S(rot)=     3.61 kcal/mol T*S(tot)=    13.88 kcal/mol
 sn= 3  qrot/sn=      65.9163 T*S(rot)=     3.37 kcal/mol T*S(tot)=    13.64 kcal/mol
 sn= 4  qrot/sn=      49.4372 T*S(rot)=     3.20 kcal/mol T*S(tot)=    13.47 kcal/mol
 sn= 5  qrot/sn=      39.5498 T*S(rot)=     3.07 kcal/mol T*S(tot)=    13.34 kcal/mol
 sn= 6  qrot/sn=      32.9581 T*S(rot)=     2.96 kcal/mol T*S(tot)=    13.23 kcal/mol
 sn= 7  qrot/sn=      28.2498 T*S(rot)=     2.87 kcal/mol T*S(tot)=    13.14 kcal/mol
 sn= 8  qrot/sn=      24.7186 T*S(rot)=     2.79 kcal/mol T*S(tot)=    13.06 kcal/mol
 sn= 9  qrot/sn=      21.9721 T*S(rot)=     2.72 kcal/mol T*S(tot)=    12.99 kcal/mol
 sn=10  qrot/sn=      19.7749 T*S(rot)=     2.66 kcal/mol T*S(tot)=    12.93 kcal/mol
 sn=11  qrot/sn=      17.9772 T*S(rot)=     2.60 kcal/mol T*S(tot)=    12.87 kcal/mol
 sn=12  qrot/sn=      16.4791 T*S(rot)=     2.55 kcal/mol T*S(tot)=    12.82 kcal/mol


-------------------
GIBBS FREE ENTHALPY
-------------------

The Gibbs free enthalpy is G = H - T*S

Total enthalpy                    ...    -56.38139250 Eh 
Total entropy correction          ...     -0.02174137 Eh    -13.64 kcal/mol
-----------------------------------------------------------------------
Final Gibbs free enthalpy         ...    -56.40313387 Eh

For completeness - the Gibbs free enthalpy minus the electronic energy
G-E(el)                           ...      0.01597086 Eh     10.02 kcal/mol


Timings for individual modules:

Sum of individual times         ...       59.872 sec (=   0.998 min)
GTO integral calculation        ...       10.196 sec (=   0.170 min)  17.0 %
SCF iterations                  ...       21.796 sec (=   0.363 min)  36.4 %
SCF Gradient evaluation         ...       10.209 sec (=   0.170 min)  17.1 %
Geometry relaxation             ...        6.259 sec (=   0.104 min)  10.5 %
Analytical frequency calculation...       11.412 sec (=   0.190 min)  19.1 %
                             ****ORCA TERMINATED NORMALLY****
TOTAL RUN TIME: 0 days 0 hours 1 minutes 6 seconds 274 msec
