
                                 *****************
                                 * O   R   C   A *
                                 *****************

           --- An Ab Initio, DFT and Semiempirical electronic structure package ---

                  #######################################################
                  #                        -***-                        #
                  #  Department of molecular theory and spectroscopy    #
                  #              Directorship: Frank Neese              #
                  # Max Planck Institute for Chemical Energy Conversion #
                  #                  D-45470 Muelheim/Ruhr              #
                  #                       Germany                       #
                  #                                                     #
                  #                  All rights reserved                #
                  #                        -***-                        #
                  #######################################################


                         Program Version 4.0.1.2 - RELEASE -


 With contributions from (in alphabetic order):
   Daniel Aravena         : Magnetic Properties
   Michael Atanasov       : Ab Initio Ligand Field Theory
   Ute Becker             : Parallelization
   Martin Brehm           : Molecular dynamics
   Dmytro Bykov           : SCF Hessian
   Vijay G. Chilkuri      : MRCI spin determinant printing
   Dipayan Datta          : RHF DLPNO-CCSD density
   Achintya Kumar Dutta   : EOM-CC, STEOM-CC
   Dmitry Ganyushin       : Spin-Orbit,Spin-Spin,Magnetic field MRCI
   Yang Guo               : DLPNO-NEVPT2, CIM, IAO-localization
   Andreas Hansen         : Spin unrestricted coupled pair/coupled cluster methods
   Lee Huntington         : MR-EOM, pCC
   Robert Izsak           : Overlap fitted RIJCOSX, COSX-SCS-MP3, EOM
   Christian Kollmar      : KDIIS, OOCD, Brueckner-CCSD(T), CCSD density
   Simone Kossmann        : Meta GGA functionals, TD-DFT gradient, OOMP2, MP2 Hessian
   Martin Krupicka        : AUTO-CI
   Dagmar Lenk            : GEPOL surface
   Dimitrios Liakos       : Extrapolation schemes; parallel MDCI
   Dimitrios Manganas     : ROCIS; embedding schemes
   Dimitrios Pantazis     : SARC Basis sets
   Taras Petrenko         : DFT Hessian,TD-DFT gradient, ASA, ECA, R-Raman, ABS, FL, XAS/XES, NRVS
   Peter Pinski           : DLPNO-MP2
   Christoph Reimann      : Effective Core Potentials
   Marius Retegan         : Local ZFS, SOC
   Christoph Riplinger    : Optimizer, TS searches, QM/MM, DLPNO-CCSD(T), (RO)-DLPNO pert. Triples
   Tobias Risthaus        : Range-separated hybrids, TD-DFT gradient, RPA, STAB
   Michael Roemelt        : Restricted open shell CIS
   Masaaki Saitow         : Open-shell DLPNO
   Barbara Sandhoefer     : DKH picture change effects
   Kantharuban Sivalingam : CASSCF convergence, NEVPT2, FIC-MRCI
   Georgi Stoychev        : AutoAux
   Boris Wezisla          : Elementary symmetry handling
   Frank Wennmohs         : Technical directorship


 We gratefully acknowledge several colleagues who have allowed us to
 interface, adapt or use parts of their codes:
   Stefan Grimme, W. Hujo, H. Kruse,             : VdW corrections, initial TS optimization,
                  C. Bannwarth                     DFT functionals, gCP, sTDA/sTD-DF
   Ed Valeev                                     : LibInt (2-el integral package), F12 methods
   Garnet Chan, S. Sharma, J. Yang, R. Olivares  : DMRG
   Ulf Ekstrom                                   : XCFun DFT Library
   Mihaly Kallay                                 : mrcc  (arbitrary order and MRCC methods)
   Andreas Klamt, Michael Diedenhofen            : otool_cosmo (COSMO solvation model)
   Jiri Pittner, Ondrej Demel                    : Mk-CCSD
   Frank Weinhold                                : gennbo (NPA and NBO analysis)
   Christopher J. Cramer and Donald G. Truhlar   : smd solvation model


 Your calculation uses the libint2 library for the computation of 2-el integrals
 For citations please refer to: http://libint.valeyev.net

 This ORCA versions uses:
   CBLAS   interface :  Fast vector & matrix operations
   LAPACKE interface :  Fast linear algebra routines
   SCALAPACK package :  Parallel linear algebra routines


Your calculation utilizes the geometrical counterpoise correction gCP
Please cite in your paper:
H.Kruse, S. Grimme J.Chem.Phys., 136, (2012), 154101 
   

Your calculation utilizes the atom-pairwise dispersion correction
with the Becke-Johnson damping scheme (D3BJ)
Cite in your paper:
S.Grimme, S.Ehrlich, L.Goerigk, J Comput Chem, (2011), 32, 1456–1465 
S.Grimme, J.Antony, S.Ehrlich and H.Krieg, J.Chem.Phys., 132, (2010), 154104 
   

Your calculation employs the composite approach PBEh-3c.
Please cite in your paper:
S. Grimme, J. G. Brandenburg, C. Bannwarth, A. Hansen J.Chem.Phys., 143, (2015), 054107 
   

Your calculation utilizes the basis: def2-mSVP

Your calculation utilizes the auxiliary basis: def2/J
   F. Weigend, Phys. Chem. Chem. Phys. 8, 1057 (2006).

================================================================================
                                        WARNINGS
                       Please study these warnings very carefully!
================================================================================

Warning: TCutStore was < 0. Adjusted to Thresh (uncritical)

WARNING: Split-RI-J cannot be used together with RIJONX
  ===> : Split-RI-J will be disabled

WARNING: Geometry Optimization
  ===> : Switching off AutoStart
         For restart on a previous wavefunction, please use MOREAD

INFO   : the flag for use of LIBINT has been found!

================================================================================
                                       INPUT FILE
================================================================================
NAME = pyrrole.inp
|  1> # pyrrole.xyz
|  2> ! PBEh3c Opt Freq
|  3> 
|  4> * xyz 0 1
|  5> C         -1.17059        0.01120        0.00014
|  6> C         -0.37390        1.13442        0.00040
|  7> C          0.97221        0.69679        0.00017
|  8> C          0.95607       -0.68020       -0.00023
|  9> N         -0.35233       -1.08830       -0.00024
| 10> H         -2.24657       -0.09976        0.00020
| 11> H         -0.72409        2.15850        0.00072
| 12> H          1.85768        1.31915        0.00027
| 13> H          1.76108       -1.40268       -0.00050
| 14> H         -0.66520       -2.05064       -0.00049
| 15> *
| 16> %pal
| 17>  nprocs 4
| 18> end
| 19> 
| 20>                          ****END OF INPUT****
================================================================================

                       *****************************
                       * Geometry Optimization Run *
                       *****************************

Geometry optimization settings:
Update method            Update   .... BFGS
Choice of coordinates    CoordSys .... Redundant Internals
Initial Hessian          InHess   .... Almoef's Model

Convergence Tolerances:
Energy Change            TolE     ....  5.0000e-06 Eh
Max. Gradient            TolMAXG  ....  3.0000e-04 Eh/bohr
RMS Gradient             TolRMSG  ....  1.0000e-04 Eh/bohr
Max. Displacement        TolMAXD  ....  4.0000e-03 bohr
RMS Displacement         TolRMSD  ....  2.0000e-03 bohr

------------------------------------------------------------------------------
                        ORCA OPTIMIZATION COORDINATE SETUP
------------------------------------------------------------------------------

The optimization will be done in new redundant internal coordinates
Making redundant internal coordinates   ...  (new redundants) done
Evaluating the initial hessian          ...  (Almloef) done
Evaluating the coordinates              ...  done
Calculating the B-matrix                .... done
Calculating the G-matrix                .... done
Diagonalizing the G-matrix              .... done
The first mode is                       ....   21
The number of degrees of freedom        ....   24

    -----------------------------------------------------------------
                    Redundant Internal Coordinates


    -----------------------------------------------------------------
         Definition                    Initial Value    Approx d2E/dq
    -----------------------------------------------------------------
      1. B(C   1,C   0)                  1.3771         0.655176   
      2. B(C   2,C   1)                  1.4155         0.569005   
      3. B(C   3,C   2)                  1.3771         0.655155   
      4. B(N   4,C   3)                  1.3706         0.601005   
      5. B(N   4,C   0)                  1.3706         0.601010   
      6. B(H   5,C   0)                  1.0817         0.371268   
      7. B(H   6,C   1)                  1.0823         0.370432   
      8. B(H   7,C   2)                  1.0823         0.370422   
      9. B(H   8,C   3)                  1.0817         0.371284   
     10. B(H   9,N   4)                  1.0119         0.429664   
     11. A(C   1,C   0,H   5)          131.2355         0.358080   
     12. A(N   4,C   0,H   5)          120.7692         0.350704   
     13. A(C   1,C   0,N   4)          107.9952         0.433097   
     14. A(C   0,C   1,H   6)          125.7738         0.357942   
     15. A(C   0,C   1,C   2)          107.3380         0.431681   
     16. A(C   2,C   1,H   6)          126.8881         0.349494   
     17. A(C   3,C   2,H   7)          125.7733         0.357939   
     18. A(C   1,C   2,H   7)          126.8885         0.349492   
     19. A(C   1,C   2,C   3)          107.3382         0.431678   
     20. A(N   4,C   3,H   8)          120.7696         0.350706   
     21. A(C   2,C   3,H   8)          131.2358         0.358080   
     22. A(C   2,C   3,N   4)          107.9946         0.433094   
     23. A(C   3,N   4,H   9)          125.3332         0.356349   
     24. A(C   0,N   4,H   9)          125.3329         0.356349   
     25. A(C   0,N   4,C   3)          109.3339         0.423664   
     26. D(H   6,C   1,C   0,H   5)     -0.0006         0.029921   
     27. D(C   2,C   1,C   0,N   4)     -0.0001         0.029921   
     28. D(C   2,C   1,C   0,H   5)    179.9994         0.029921   
     29. D(H   6,C   1,C   0,N   4)    179.9999         0.029921   
     30. D(C   3,C   2,C   1,H   6)   -179.9997         0.022206   
     31. D(H   7,C   2,C   1,C   0)    179.9994         0.022206   
     32. D(C   3,C   2,C   1,C   0)      0.0003         0.022206   
     33. D(H   7,C   2,C   1,H   6)     -0.0006         0.022206   
     34. D(H   8,C   3,C   2,H   7)      0.0010         0.029919   
     35. D(H   8,C   3,C   2,C   1)   -179.9999         0.029919   
     36. D(N   4,C   3,C   2,H   7)   -179.9995         0.029919   
     37. D(N   4,C   3,C   2,C   1)     -0.0004         0.029919   
     38. D(H   9,N   4,C   0,C   1)    179.9999         0.029113   
     39. D(C   3,N   4,C   0,H   5)   -179.9997         0.029113   
     40. D(C   3,N   4,C   0,C   1)     -0.0002         0.029113   
     41. D(H   9,N   4,C   3,H   8)     -0.0002         0.029112   
     42. D(H   9,N   4,C   3,C   2)   -179.9997         0.029112   
     43. D(C   0,N   4,C   3,H   8)    179.9999         0.029112   
     44. D(C   0,N   4,C   3,C   2)      0.0004         0.029112   
     45. D(H   9,N   4,C   0,H   5)      0.0003         0.029113   
    -----------------------------------------------------------------

Number of atoms                         .... 10
Number of degrees of freedom            .... 45

         *************************************************************
         *                GEOMETRY OPTIMIZATION CYCLE   1            *
         *************************************************************
---------------------------------
CARTESIAN COORDINATES (ANGSTROEM)
---------------------------------
  C     -1.170590    0.011200    0.000140
  C     -0.373900    1.134420    0.000400
  C      0.972210    0.696790    0.000170
  C      0.956070   -0.680200   -0.000230
  N     -0.352330   -1.088300   -0.000240
  H     -2.246570   -0.099760    0.000200
  H     -0.724090    2.158500    0.000720
  H      1.857680    1.319150    0.000270
  H      1.761080   -1.402680   -0.000500
  H     -0.665200   -2.050640   -0.000490

----------------------------
CARTESIAN COORDINATES (A.U.)
----------------------------
  NO LB      ZA    FRAG     MASS         X           Y           Z
   0 C     6.0000    0    12.011   -2.212095    0.021165    0.000265
   1 C     6.0000    0    12.011   -0.706569    2.143743    0.000756
   2 C     6.0000    0    12.011    1.837211    1.316742    0.000321
   3 C     6.0000    0    12.011    1.806710   -1.285392   -0.000435
   4 N     7.0000    0    14.007   -0.665807   -2.056589   -0.000454
   5 H     1.0000    0     1.008   -4.245402   -0.188519    0.000378
   6 H     1.0000    0     1.008   -1.368332    4.078974    0.001361
   7 H     1.0000    0     1.008    3.510506    2.492832    0.000510
   8 H     1.0000    0     1.008    3.327959   -2.650681   -0.000945
   9 H     1.0000    0     1.008   -1.257046   -3.875148   -0.000926

--------------------------------
INTERNAL COORDINATES (ANGSTROEM)
--------------------------------
 C      0   0   0     0.000000000000     0.00000000     0.00000000
 C      1   0   0     1.377075957273     0.00000000     0.00000000
 C      2   1   0     1.415461833431   107.33802324     0.00000000
 C      3   2   1     1.377084645075   107.33817099     0.00000000
 N      1   2   3     1.370565511751   107.99523302     0.00000000
 H      1   2   3     1.081686223264   131.23552981   179.99942213
 H      2   1   3     1.082299859050   125.77384519   179.99995485
 H      3   2   1     1.082307304096   126.88849638   179.99936696
 H      4   3   2     1.081673945050   131.23578304   180.00012711
 H      5   1   2     1.011921921395   125.33291529   179.99987570

---------------------------
INTERNAL COORDINATES (A.U.)
---------------------------
 C      0   0   0     0.000000000000     0.00000000     0.00000000
 C      1   0   0     2.602296424854     0.00000000     0.00000000
 C      2   1   0     2.674835218203   107.33802324     0.00000000
 C      3   2   1     2.602312842419   107.33817099     0.00000000
 N      1   2   3     2.589993465806   107.99523302     0.00000000
 H      1   2   3     2.044090724805   131.23552981   179.99942213
 H      2   1   3     2.045250328386   125.77384519   179.99995485
 H      3   2   1     2.045264397484   126.88849638   179.99936696
 H      4   3   2     2.044067522343   131.23578304   180.00012711
 H      5   1   2     1.912255300348   125.33291529   179.99987570

---------------------
BASIS SET INFORMATION
---------------------
There are 3 groups of distinct atoms

 Group   1 Type C   : 8s4p1d contracted to 4s2p1d pattern {5111/31/1}
 Group   2 Type N   : 8s4p1d contracted to 4s2p1d pattern {5111/31/1}
 Group   3 Type H   : 4s contracted to 2s pattern {31}

Atom   0C    basis set group =>   1
Atom   1C    basis set group =>   1
Atom   2C    basis set group =>   1
Atom   3C    basis set group =>   1
Atom   4N    basis set group =>   2
Atom   5H    basis set group =>   3
Atom   6H    basis set group =>   3
Atom   7H    basis set group =>   3
Atom   8H    basis set group =>   3
Atom   9H    basis set group =>   3
-------------------------------
AUXILIARY BASIS SET INFORMATION
-------------------------------
There are 3 groups of distinct atoms

 Group   1 Type C   : 12s5p4d2f1g contracted to 6s4p3d1f1g pattern {711111/2111/211/2/1}
 Group   2 Type N   : 12s5p4d2f1g contracted to 6s4p3d1f1g pattern {711111/2111/211/2/1}
 Group   3 Type H   : 5s2p1d contracted to 3s1p1d pattern {311/2/1}

Atom   0C    basis set group =>   1
Atom   1C    basis set group =>   1
Atom   2C    basis set group =>   1
Atom   3C    basis set group =>   1
Atom   4N    basis set group =>   2
Atom   5H    basis set group =>   3
Atom   6H    basis set group =>   3
Atom   7H    basis set group =>   3
Atom   8H    basis set group =>   3
Atom   9H    basis set group =>   3


           ************************************************************
           *        Program running with 4 parallel MPI-processes     *
           *              working on a common directory               *
           ************************************************************
------------------------------------------------------------------------------
                           ORCA GTO INTEGRAL CALCULATION
                           -- RI-GTO INTEGRALS CHOSEN --
------------------------------------------------------------------------------

                         BASIS SET STATISTICS AND STARTUP INFO

Gaussian basis set:
 # of primitive gaussian shells          ...   85
 # of primitive gaussian functions       ...  145
 # of contracted shells                  ...   45
 # of contracted basis functions         ...   85
 Highest angular momentum                ...    2
 Maximum contraction depth               ...    5
Auxiliary gaussian basis set:
 # of primitive gaussian shells          ...  160
 # of primitive gaussian functions       ...  430
 # of contracted shells                  ...  100
 # of contracted aux-basis functions     ...  300
 Highest angular momentum                ...    4
 Maximum contraction depth               ...    7
Ratio of auxiliary to basis functions    ...  3.53
Integral package used                  ... LIBINT
 One Electron integrals                  ... done
 Ordering auxiliary basis shells         ... done
 Integral threshhold             Thresh  ...  2.500e-11
 Primitive cut-off               TCut    ...  2.500e-12
 Pre-screening matrix                    ... done
 Shell pair data                         ... 
 Ordering of the shell pairs             ... done (   0.000 sec) 1010 of 1035 pairs
 Determination of significant pairs      ... done (   0.000 sec)
 Creation of shell pair data             ... done (   0.000 sec)
 Storage of shell pair data              ... done (   0.000 sec)
 Shell pair data done in (   0.001 sec)
 Computing two index integrals           ... done
 Cholesky decomposition of the V-matrix  ... done


Timings:
 Total evaluation time                   ...   0.353 sec (  0.006 min)
 One electron matrix time                ...   0.029 sec (  0.000 min) =  8.1%
 Schwartz matrix evaluation time         ...   0.225 sec (  0.004 min) = 63.7%
 Two index repulsion integral time       ...   0.004 sec (  0.000 min) =  1.0%
 Cholesky decomposition of V             ...   0.072 sec (  0.001 min) = 20.4%
 Three index repulsion integral time     ...   0.000 sec (  0.000 min) =  0.0%



           ************************************************************
           *        Program running with 4 parallel MPI-processes     *
           *              working on a common directory               *
           ************************************************************
-------------------------------------------------------------------------------
                                 ORCA SCF
-------------------------------------------------------------------------------

------------
SCF SETTINGS
------------
Hamiltonian:
 Density Functional     Method          .... DFT(GTOs)
 Exchange Functional    Exchange        .... PBE
   PBE kappa parameter   XKappa         ....  1.024500
   PBE mue parameter    XMuePBE         ....  0.123457
 Correlation Functional Correlation     .... PBE
   PBE beta parameter  CBetaPBE         ....  0.030000
 LDA part of GGA corr.  LDAOpt          .... PW91-LDA
 Gradients option       PostSCFGGA      .... off
 Hybrid DFT is turned on
   Fraction HF Exchange ScalHFX         ....  0.420000
   Scaling of DF-GGA-X  ScalDFX         ....  0.580000
   Scaling of DF-GGA-C  ScalDFC         ....  1.000000
   Scaling of DF-LDA-C  ScalLDAC        ....  1.000000
   Perturbative correction              ....  0.000000
 RI-approximation to the Coulomb term is turned on
   Number of auxiliary basis functions  .... 300
   RIJ-ON(X) (HFX calculated with O(N)) .... on


General Settings:
 Integral files         IntName         .... pyrrole
 Hartree-Fock type      HFTyp           .... RHF
 Total Charge           Charge          ....    0
 Multiplicity           Mult            ....    1
 Number of Electrons    NEL             ....   36
 Basis Dimension        Dim             ....   85
 Nuclear Repulsion      ENuc            ....    161.0993755373 Eh

Convergence Acceleration:
 DIIS                   CNVDIIS         .... on
   Start iteration      DIISMaxIt       ....    12
   Startup error        DIISStart       ....  0.200000
   # of expansion vecs  DIISMaxEq       ....     5
   Bias factor          DIISBfac        ....   1.050
   Max. coefficient     DIISMaxC        ....  10.000
 Newton-Raphson         CNVNR           .... off
 SOSCF                  CNVSOSCF        .... on
   Start iteration      SOSCFMaxIt      ....   150
   Startup grad/error   SOSCFStart      ....  0.003300
 Level Shifting         CNVShift        .... on
   Level shift para.    LevelShift      ....    0.2500
   Turn off err/grad.   ShiftErr        ....    0.0010
 Zerner damping         CNVZerner       .... off
 Static damping         CNVDamp         .... on
   Fraction old density DampFac         ....    0.7000
   Max. Damping (<1)    DampMax         ....    0.9800
   Min. Damping (>=0)   DampMin         ....    0.0000
   Turn off err/grad.   DampErr         ....    0.1000
 Fernandez-Rico         CNVRico         .... off

SCF Procedure:
 Maximum # iterations   MaxIter         ....   125
 SCF integral mode      SCFMode         .... Direct
   Integral package                     .... LIBINT
 Reset frequeny         DirectResetFreq ....    20
 Integral Threshold     Thresh          ....  2.500e-11 Eh
 Primitive CutOff       TCut            ....  2.500e-12 Eh

Convergence Tolerance:
 Convergence Check Mode ConvCheckMode   .... Total+1el-Energy
 Convergence forced     ConvForced      .... 0
 Energy Change          TolE            ....  1.000e-08 Eh
 1-El. energy change                    ....  1.000e-05 Eh
 Orbital Gradient       TolG            ....  1.000e-05
 Orbital Rotation angle TolX            ....  1.000e-05
 DIIS Error             TolErr          ....  5.000e-07


Diagonalization of the overlap matrix:
Smallest eigenvalue                        ... 1.191e-03
Time for diagonalization                   ...    0.132 sec
Threshold for overlap eigenvalues          ... 1.000e-08
Number of eigenvalues below threshold      ... 0
Time for construction of square roots      ...    0.014 sec
Total time needed                          ...    0.146 sec

--------------------------------
INITIAL GUESS: MINIMAL BASIS EHT
--------------------------------
The minimal basis has 30 functions
EHT matrix was diagonalized
Basis set overlap was calculated now projecting the orbitals
Using GuessMode=FMatrix for the initial guess
C*T matrix was formed
Effective Fockian was calculated
Effective Fockian was diagonalized
Initial density was built
                      ------------------
                      INITIAL GUESS DONE
                      ------------------
-------------------
DFT GRID GENERATION
-------------------

General Integration Accuracy     IntAcc      ...  4.340
Radial Grid Type                 RadialGrid  ... Gauss-Chebyshev
Angular Grid (max. acc.)         AngularGrid ... Lebedev-194
Angular grid pruning method      GridPruning ... 3 (G Style)
Weight generation scheme         WeightScheme... Becke
Basis function cutoff            BFCut       ...    1.0000e-11
Integration weight cutoff        WCut        ...    1.0000e-14
Grids for H and He will be reduced by one unit

# of grid points (after initial pruning)     ...  24080 (   0.0 sec)
# of grid points (after weights+screening)   ...  22681 (   0.0 sec)
nearest neighbour list constructed           ...    0.0 sec
Grid point re-assignment to atoms done       ...    0.0 sec
Grid point division into batches done        ...    0.1 sec
Reduced shell lists constructed in    0.1 sec

Total number of grid points                  ...    22681
Total number of batches                      ...      358
Average number of points per batch           ...       63
Average number of grid points per atom       ...     2268
Average number of shells per batch           ...    38.12 (84.71%)
Average number of basis functions per batch  ...    77.64 (91.34%)
Average number of large shells per batch     ...    34.23 (89.80%)
Average number of large basis fcns per batch ...    72.96 (93.97%)
Maximum spatial batch extension              ...   3.85,  3.97, 18.58 au
Average spatial batch extension              ...   0.38,  0.37,  0.60 au

Time for grid setup =    0.184 sec

--------------
SCF ITERATIONS
--------------
ITER       Energy         Delta-E        Max-DP      RMS-DP      [F,P]     Damp
               ***  Starting incremental Fock matrix formation  ***
  0   -209.2149788965   0.000000000000 0.09897969  0.00631595  0.4145995 0.7000
  1   -209.3600559596  -0.145077063091 0.07343409  0.00457103  0.2903012 0.7000
  2   -209.4627525346  -0.102696575008 0.05263429  0.00330604  0.2022038 0.7000
                               ***Turning on DIIS***
  3   -209.5358559882  -0.073103453599 0.03742709  0.00240243  0.1412206 0.7000
  4   -209.5879765907  -0.052120602436 0.09228934  0.00613594  0.0988843 0.0000
  5   -209.7136415579  -0.125664967188 0.00805836  0.00035058  0.0067445 0.0000
                      *** Initiating the SOSCF procedure ***
                           *** Shutting down DIIS ***
                      *** Re-Reading the Fockian *** 
                      *** Removing any level shift *** 
ITER      Energy       Delta-E        Grad      Rot      Max-DP    RMS-DP
  6   -209.71387146  -0.0002299022  0.001862  0.001862  0.002545  0.000115
               *** Restarting incremental Fock matrix formation ***
  7   -209.71390315  -0.0000316856  0.000620  0.001171  0.002168  0.000072
  8   -209.71390771  -0.0000045618  0.000410  0.000591  0.000670  0.000032
  9   -209.71391051  -0.0000027982  0.000064  0.000119  0.000134  0.000007
 10   -209.71391055  -0.0000000418  0.000043  0.000076  0.000082  0.000003
 11   -209.71391056  -0.0000000090  0.000014  0.000019  0.000029  0.000002
                  ***Gradient check signals convergence***
              ***Rediagonalizing the Fockian in SOSCF/NRSCF***

               *****************************************************
               *                     SUCCESS                       *
               *           SCF CONVERGED AFTER  12 CYCLES          *
               *****************************************************


----------------
TOTAL SCF ENERGY
----------------

Total Energy       :         -209.71391056 Eh           -5706.60562 eV

Components:
Nuclear Repulsion  :          161.09937554 Eh            4383.73687 eV
Electronic Energy  :         -370.81328610 Eh          -10090.34250 eV
One Electron Energy:         -601.25854678 Eh          -16361.07684 eV
Two Electron Energy:          230.44526068 Eh            6270.73434 eV

Virial components:
Potential Energy   :         -417.71967930 Eh          -11366.73035 eV
Kinetic Energy     :          208.00576874 Eh            5660.12472 eV
Virial Ratio       :            2.00821199


DFT components:
N(Alpha)           :       17.999948602508 electrons
N(Beta)            :       17.999948602508 electrons
N(Total)           :       35.999897205015 electrons
E(X)               :      -16.239743379016 Eh       
E(C)               :       -1.561501328571 Eh       
E(XC)              :      -17.801244707587 Eh       

---------------
SCF CONVERGENCE
---------------

  Last Energy change         ...   -4.0239e-09  Tolerance :   1.0000e-08
  Last MAX-Density change    ...    4.4113e-06  Tolerance :   1.0000e-07
  Last RMS-Density change    ...    2.6366e-07  Tolerance :   5.0000e-09
  Last Orbital Gradient      ...    1.9364e-06  Tolerance :   1.0000e-05
  Last Orbital Rotation      ...    2.4897e-06  Tolerance :   1.0000e-05

             **** THE GBW FILE WAS UPDATED (pyrrole.gbw) ****
             **** DENSITY FILE WAS UPDATED (pyrrole.scfp.tmp) ****
             **** ENERGY FILE WAS UPDATED (pyrrole.en.tmp) ****
----------------
ORBITAL ENERGIES
----------------

  NO   OCC          E(Eh)            E(eV) 
   0   2.0000     -14.682397      -399.5283 
   1   2.0000     -10.458575      -284.5923 
   2   2.0000     -10.458526      -284.5909 
   3   2.0000     -10.420536      -283.5572 
   4   2.0000     -10.420060      -283.5443 
   5   2.0000      -1.076675       -29.2978 
   6   2.0000      -0.858461       -23.3599 
   7   2.0000      -0.800948       -21.7949 
   8   2.0000      -0.658062       -17.9068 
   9   2.0000      -0.631106       -17.1733 
  10   2.0000      -0.607707       -16.5366 
  11   2.0000      -0.486034       -13.2256 
  12   2.0000      -0.475009       -12.9256 
  13   2.0000      -0.462935       -12.5971 
  14   2.0000      -0.440001       -11.9730 
  15   2.0000      -0.426277       -11.5996 
  16   2.0000      -0.283787        -7.7222 
  17   2.0000      -0.246870        -6.7177 
  18   0.0000       0.071474         1.9449 
  19   0.0000       0.118555         3.2260 
  20   0.0000       0.125359         3.4112 
  21   0.0000       0.193920         5.2768 
  22   0.0000       0.223373         6.0783 
  23   0.0000       0.228787         6.2256 
  24   0.0000       0.239195         6.5088 
  25   0.0000       0.264178         7.1886 
  26   0.0000       0.264449         7.1960 
  27   0.0000       0.353619         9.6225 
  28   0.0000       0.354040         9.6339 
  29   0.0000       0.496722        13.5165 
  30   0.0000       0.545422        14.8417 
  31   0.0000       0.586322        15.9546 
  32   0.0000       0.590550        16.0697 
  33   0.0000       0.609252        16.5786 
  34   0.0000       0.620068        16.8729 
  35   0.0000       0.631769        17.1913 
  36   0.0000       0.654121        17.7995 
  37   0.0000       0.671058        18.2604 
  38   0.0000       0.688144        18.7254 
  39   0.0000       0.703290        19.1375 
  40   0.0000       0.818910        22.2837 
  41   0.0000       0.873337        23.7647 
  42   0.0000       0.906029        24.6543 
  43   0.0000       0.907729        24.7006 
  44   0.0000       0.963686        26.2232 
  45   0.0000       0.969220        26.3738 
  46   0.0000       1.004146        27.3242 
  47   0.0000       1.006949        27.4005 
  48   0.0000       1.054231        28.6871 
  49   0.0000       1.127178        30.6721 
  50   0.0000       1.155071        31.4311 
  51   0.0000       1.247743        33.9528 
  52   0.0000       1.355798        36.8931 
  53   0.0000       1.381023        37.5796 
  54   0.0000       1.394521        37.9468 
  55   0.0000       1.419762        38.6337 
  56   0.0000       1.448480        39.4151 
  57   0.0000       1.578388        42.9501 
  58   0.0000       1.609714        43.8025 
  59   0.0000       1.612775        43.8858 
  60   0.0000       1.866106        50.7793 
  61   0.0000       1.943717        52.8912 
  62   0.0000       2.054698        55.9112 
  63   0.0000       2.082321        56.6628 
  64   0.0000       2.128326        57.9147 
  65   0.0000       2.208524        60.0970 
  66   0.0000       2.281228        62.0754 
  67   0.0000       2.308105        62.8067 
  68   0.0000       2.340211        63.6804 
  69   0.0000       2.345717        63.8302 
  70   0.0000       2.390912        65.0600 
  71   0.0000       2.403325        65.3978 
  72   0.0000       2.631967        71.6195 
  73   0.0000       2.637035        71.7574 
  74   0.0000       2.678940        72.8977 
  75   0.0000       2.733656        74.3866 
  76   0.0000       2.772787        75.4514 
  77   0.0000       3.022502        82.2465 
  78   0.0000       3.115377        84.7737 
  79   0.0000       3.117196        84.8232 
  80   0.0000      13.396711       364.5430 
  81   0.0000      13.713320       373.1584 
  82   0.0000      14.001327       380.9955 
  83   0.0000      14.316524       389.5724 
  84   0.0000      19.258571       524.0524 

                    ********************************
                    * MULLIKEN POPULATION ANALYSIS *
                    ********************************

-----------------------
MULLIKEN ATOMIC CHARGES
-----------------------
   0 C :   -0.031539
   1 C :   -0.298238
   2 C :   -0.298552
   3 C :   -0.031796
   4 N :   -0.574539
   5 H :    0.227117
   6 H :    0.208949
   7 H :    0.209146
   8 H :    0.227640
   9 H :    0.361813
Sum of atomic charges:   -0.0000000

--------------------------------
MULLIKEN REDUCED ORBITAL CHARGES
--------------------------------
  0 C s       :     3.137770  s :     3.137770
      pz      :     1.092053  p :     2.837749
      px      :     0.925092
      py      :     0.820605
      dz2     :     0.004949  d :     0.056019
      dxz     :     0.003934
      dyz     :     0.011790
      dx2y2   :     0.016232
      dxy     :     0.019114
  1 C s       :     3.244385  s :     3.244385
      pz      :     1.086278  p :     3.014111
      px      :     0.901109
      py      :     1.026724
      dz2     :     0.004059  d :     0.039742
      dxz     :     0.007185
      dyz     :     0.003928
      dx2y2   :     0.011344
      dxy     :     0.013227
  2 C s       :     3.243604  s :     3.243604
      pz      :     1.086273  p :     3.015210
      px      :     0.994652
      py      :     0.934285
      dz2     :     0.004057  d :     0.039737
      dxz     :     0.004684
      dyz     :     0.006427
      dx2y2   :     0.012830
      dxy     :     0.011739
  3 C s       :     3.136861  s :     3.136861
      pz      :     1.091905  p :     2.838917
      px      :     0.781328
      py      :     0.965684
      dz2     :     0.004946  d :     0.056018
      dxz     :     0.007932
      dyz     :     0.007792
      dx2y2   :     0.016243
      dxy     :     0.019104
  4 N s       :     3.547296  s :     3.547296
      pz      :     1.575595  p :     3.983468
      px      :     1.179523
      py      :     1.228350
      dz2     :     0.004230  d :     0.043775
      dxz     :     0.010713
      dyz     :     0.003510
      dx2y2   :     0.013637
      dxy     :     0.011684
  5 H s       :     0.772883  s :     0.772883
  6 H s       :     0.791051  s :     0.791051
  7 H s       :     0.790854  s :     0.790854
  8 H s       :     0.772360  s :     0.772360
  9 H s       :     0.638187  s :     0.638187


                     *******************************
                     * LOEWDIN POPULATION ANALYSIS *
                     *******************************

----------------------
LOEWDIN ATOMIC CHARGES
----------------------
   0 C :   -0.125056
   1 C :   -0.202137
   2 C :   -0.202071
   3 C :   -0.124973
   4 N :   -0.135835
   5 H :    0.130641
   6 H :    0.134224
   7 H :    0.134149
   8 H :    0.130643
   9 H :    0.260416

-------------------------------
LOEWDIN REDUCED ORBITAL CHARGES
-------------------------------
  0 C s       :     2.886193  s :     2.886193
      pz      :     1.090788  p :     3.116920
      px      :     1.042216
      py      :     0.983916
      dz2     :     0.008977  d :     0.121943
      dxz     :     0.006040
      dyz     :     0.025320
      dx2y2   :     0.035663
      dxy     :     0.045942
  1 C s       :     2.895659  s :     2.895659
      pz      :     1.077477  p :     3.216709
      px      :     1.063938
      py      :     1.075294
      dz2     :     0.006586  d :     0.089769
      dxz     :     0.015228
      dyz     :     0.006079
      dx2y2   :     0.028290
      dxy     :     0.033586
  2 C s       :     2.895604  s :     2.895604
      pz      :     1.077495  p :     3.216699
      px      :     1.069769
      py      :     1.069435
      dz2     :     0.006586  d :     0.089767
      dxz     :     0.008484
      dyz     :     0.012821
      dx2y2   :     0.034043
      dxy     :     0.027834
  3 C s       :     2.886138  s :     2.886138
      pz      :     1.090684  p :     3.116894
      px      :     0.947988
      py      :     1.078222
      dz2     :     0.008976  d :     0.121941
      dxz     :     0.016088
      dyz     :     0.015272
      dx2y2   :     0.040138
      dxy     :     0.041466
  4 N s       :     3.084464  s :     3.084464
      pz      :     1.529005  p :     3.952406
      px      :     1.224862
      py      :     1.198539
      dz2     :     0.005742  d :     0.098965
      dxz     :     0.022948
      dyz     :     0.006271
      dx2y2   :     0.033144
      dxy     :     0.030860
  5 H s       :     0.869359  s :     0.869359
  6 H s       :     0.865776  s :     0.865776
  7 H s       :     0.865851  s :     0.865851
  8 H s       :     0.869357  s :     0.869357
  9 H s       :     0.739584  s :     0.739584


                      *****************************
                      * MAYER POPULATION ANALYSIS *
                      *****************************

  NA   - Mulliken gross atomic population
  ZA   - Total nuclear charge
  QA   - Mulliken gross atomic charge
  VA   - Mayer's total valence
  BVA  - Mayer's bonded valence
  FA   - Mayer's free valence

  ATOM       NA         ZA         QA         VA         BVA        FA
  0 C      6.0315     6.0000    -0.0315     3.6716     3.6716    -0.0000
  1 C      6.2982     6.0000    -0.2982     3.8779     3.8779    -0.0000
  2 C      6.2986     6.0000    -0.2986     3.8791     3.8791     0.0000
  3 C      6.0318     6.0000    -0.0318     3.6726     3.6726    -0.0000
  4 N      7.5745     7.0000    -0.5745     3.2902     3.2902     0.0000
  5 H      0.7729     1.0000     0.2271     0.9107     0.9107    -0.0000
  6 H      0.7911     1.0000     0.2089     0.9242     0.9242     0.0000
  7 H      0.7909     1.0000     0.2091     0.9242     0.9242     0.0000
  8 H      0.7724     1.0000     0.2276     0.9104     0.9104    -0.0000
  9 H      0.6382     1.0000     0.3618     0.8449     0.8449     0.0000

  Mayer bond orders larger than 0.1
B(  0-C ,  1-C ) :   1.5423 B(  0-C ,  4-N ) :   1.1627 B(  0-C ,  5-H ) :   0.9153 
B(  1-C ,  2-C ) :   1.3764 B(  1-C ,  6-H ) :   0.9279 B(  2-C ,  3-C ) :   1.5432 
B(  2-C ,  7-H ) :   0.9277 B(  3-C ,  4-N ) :   1.1630 B(  3-C ,  8-H ) :   0.9150 
B(  4-N ,  9-H ) :   0.8259 

-------
TIMINGS
-------

Total SCF time: 0 days 0 hours 0 min 8 sec 

Total time                  ....       8.297 sec
Sum of individual times     ....       8.106 sec  ( 97.7%)

Fock matrix formation       ....       7.747 sec  ( 93.4%)
  XC integration            ....       0.977 sec  ( 12.6% of F)
    Basis function eval.    ....       0.323 sec  ( 33.0% of XC)
    Density eval.           ....       0.168 sec  ( 17.2% of XC)
    XC-Functional eval.     ....       0.086 sec  (  8.8% of XC)
    XC-Potential eval.      ....       0.302 sec  ( 30.9% of XC)
Diagonalization             ....       0.017 sec  (  0.2%)
Density matrix formation    ....       0.002 sec  (  0.0%)
Population analysis         ....       0.066 sec  (  0.8%)
Initial guess               ....       0.016 sec  (  0.2%)
Orbital Transformation      ....       0.000 sec  (  0.0%)
Orbital Orthonormalization  ....       0.000 sec  (  0.0%)
DIIS solution               ....       0.047 sec  (  0.6%)
SOSCF solution              ....       0.027 sec  (  0.3%)
Grid generation             ....       0.184 sec  (  2.2%)


-------------------------------------------------------------------------------
                          DFT DISPERSION CORRECTION                            
                                                                               
                              DFTD3 V3.1  Rev 1                                
                          USING Becke-Johnson damping                          
-------------------------------------------------------------------------------
The PBEh-3c composite method is recognized
Using three-body term ABC
Active option DFTDOPT                   ...         4   

molecular C6(AA) [au] = 1054.252065 


            DFT-D V3
 parameters
 s6 scaling factor         :     1.0000 
 a1 scaling factor         :     0.4860 
 s8 scaling factor         :     0.0000 
 a2 scaling factor         :     4.5000 
 Damping factor alpha9(ATM):    16.0000 
 ad hoc parameters k1-k3   :    16.0000     1.3333    -4.0000 

 Edisp/kcal,au: -2.589557963427  -0.004126722853 
 E6   /kcal   :  -2.592077113 
 E8   /kcal   :  -0.000000000 
 E6(ABC)      :   0.002519150 
 % E8         :   0.000000000 
 % E6(ABC)    :  -0.097281078 

-------------------------   ----------------
Dispersion correction           -0.004126723
-------------------------   ----------------

------------------   -----------------
gCP correction             0.014553273
------------------   -----------------

-------------------------   --------------------
FINAL SINGLE POINT ENERGY      -209.703484009775
-------------------------   --------------------



           ************************************************************
           *        Program running with 4 parallel MPI-processes     *
           *              working on a common directory               *
           ************************************************************
------------------------------------------------------------------------------
                         ORCA SCF GRADIENT CALCULATION
------------------------------------------------------------------------------

Gradient of the Kohn-Sham DFT energy:
Kohn-Sham wavefunction type      ... RKS
Hartree-Fock exchange scaling    ...    0.420
Number of operators              ...    1
Number of atoms                  ...   10
Basis set dimensions             ...   85
Integral neglect threshold       ... 2.5e-11
Integral primitive cutoff        ... 2.5e-12

Nuclear repulsion gradient       ... done
One Electron Gradient            ... done
Pre-screening matrix             ... done
Starting the two electron gradient:
Will do only exchange terms
Two electron gradient done
RI-J gradient                    ... done
Exchange-correlation gradient    ... done
Dispersion correction            ... done
gCP correction                   ... done

------------------
CARTESIAN GRADIENT
------------------

   1   C   :   -0.003520570    0.003183856    0.000000429
   2   C   :    0.005811634    0.004134410    0.000000530
   3   C   :   -0.002308697    0.006864309    0.000003666
   4   C   :    0.004642657    0.000364385   -0.000001318
   5   N   :   -0.002110469   -0.006896324   -0.000001190
   6   H   :   -0.003300801   -0.001650114    0.000000030
   7   H   :   -0.001021040    0.003370856    0.000000984
   8   H   :    0.002820399    0.002142423   -0.000000260
   9   H   :    0.001771658   -0.003315479   -0.000000606
  10   H   :   -0.002784772   -0.008198321   -0.000002266

Difference to translation invariance:
           :    0.0000000000   -0.0000000000    0.0000000000

Norm of the cartesian gradient     ...    0.0180891021
RMS gradient                       ...    0.0033026031
MAX gradient                       ...    0.0081983212

-------
TIMINGS
-------

Total SCF gradient time            ...        2.351 sec

One electron gradient       ....       0.030 sec  (  1.3%)
Prescreening matrices       ....       0.025 sec  (  1.1%)
Two electron gradient       ....       1.050 sec  ( 44.7%)
RI-J Coulomb gradient       ....       0.352 sec  ( 15.0%)
XC gradient                 ....       0.414 sec  ( 17.6%)
------------------------------------------------------------------------------
                         ORCA GEOMETRY RELAXATION STEP
------------------------------------------------------------------------------

Reading the OPT-File                    .... done
Getting information on internals        .... done
Copying old internal coords+grads       .... done
Making the new internal coordinates     .... (new redundants).... done
Validating the new internal coordinates .... (new redundants).... done
Calculating the B-matrix                .... done
Calculating the G,G- and P matrices     .... done
Transforming gradient to internals      .... done
Projecting the internal gradient        .... done
Number of atoms                         ....  10
Number of internal coordinates          ....  45
Current Energy                          ....  -209.703484010 Eh
Current gradient norm                   ....     0.018089102 Eh/bohr
Maximum allowed component of the step   ....  0.300
Current trust radius                    ....  0.300
Evaluating the initial hessian          ....  (Almloef) done
Projecting the Hessian                  .... done
Forming the augmented Hessian           .... done
Diagonalizing the augmented Hessian     .... done
Last element of RFO vector              ....  0.999114064
Lowest eigenvalues of augmented Hessian:
 -0.000885457  0.024915488  0.026744683  0.026932945  0.029112629
Length of the computed step             ....  0.042121591
The final length of the internal step   ....  0.042121591
Converting the step to cartesian space:
 Initial RMS(Int)=    0.0062791161
Transforming coordinates:
 Iter   0:  RMS(Cart)=    0.0107094539 RMS(Int)=    0.0062808447
 Iter   1:  RMS(Cart)=    0.0000198446 RMS(Int)=    0.0000126574
 Iter   2:  RMS(Cart)=    0.0000001163 RMS(Int)=    0.0000000651
 Iter   3:  RMS(Cart)=    0.0000000004 RMS(Int)=    0.0000000002
done
Storing new coordinates                 .... done

                                .--------------------.
          ----------------------|Geometry convergence|-------------------------
          Item                value                   Tolerance       Converged
          ---------------------------------------------------------------------
          RMS gradient        0.0032153239            0.0001000000      NO
          MAX gradient        0.0090847203            0.0003000000      NO
          RMS step            0.0062791161            0.0020000000      NO
          MAX step            0.0201083421            0.0040000000      NO
          ........................................................
          Max(Bonds)      0.0106      Max(Angles)    0.53
          Max(Dihed)        0.00      Max(Improp)    0.00
          ---------------------------------------------------------------------

The optimization has not yet converged - more geometry cycles are needed


    ---------------------------------------------------------------------------
                         Redundant Internal Coordinates
                            (Angstroem and degrees)

        Definition                    Value    dE/dq     Step     New-Value
    ----------------------------------------------------------------------------
     1. B(C   1,C   0)                1.3771  0.008913 -0.0071    1.3699   
     2. B(C   2,C   1)                1.4155  0.000156  0.0001    1.4155   
     3. B(C   3,C   2)                1.3771  0.009085 -0.0073    1.3698   
     4. B(N   4,C   3)                1.3706  0.008304 -0.0075    1.3631   
     5. B(N   4,C   0)                1.3706  0.008321 -0.0075    1.3631   
     6. B(H   5,C   0)                1.0817  0.003453 -0.0049    1.0768   
     7. B(H   6,C   1)                1.0823  0.003520 -0.0050    1.0773   
     8. B(H   7,C   2)                1.0823  0.003539 -0.0050    1.0773   
     9. B(H   8,C   3)                1.0817  0.003533 -0.0050    1.0767   
    10. B(H   9,N   4)                1.0119  0.008658 -0.0106    1.0013   
    11. A(C   1,C   0,H   5)          131.24  0.000492   -0.09    131.15   
    12. A(N   4,C   0,H   5)          120.77 -0.002187    0.34    121.11   
    13. A(C   1,C   0,N   4)          108.00  0.001695   -0.26    107.74   
    14. A(C   0,C   1,H   6)          125.77 -0.000071   -0.01    125.76   
    15. A(C   0,C   1,C   2)          107.34  0.000381   -0.01    107.33   
    16. A(C   2,C   1,H   6)          126.89 -0.000309    0.03    126.91   
    17. A(C   3,C   2,H   7)          125.77 -0.000055   -0.01    125.76   
    18. A(C   1,C   2,H   7)          126.89 -0.000340    0.03    126.92   
    19. A(C   1,C   2,C   3)          107.34  0.000395   -0.02    107.32   
    20. A(N   4,C   3,H   8)          120.77 -0.002111    0.33    121.10   
    21. A(C   2,C   3,H   8)          131.24  0.000498   -0.09    131.15   
    22. A(C   2,C   3,N   4)          107.99  0.001613   -0.25    107.75   
    23. A(C   3,N   4,H   9)          125.33  0.002143   -0.28    125.05   
    24. A(C   0,N   4,H   9)          125.33  0.001940   -0.25    125.08   
    25. A(C   0,N   4,C   3)          109.33 -0.004083    0.53    109.86   
    26. D(H   6,C   1,C   0,H   5)     -0.00 -0.000000    0.00     -0.00   
    27. D(C   2,C   1,C   0,N   4)     -0.00  0.000000    0.00     -0.00   
    28. D(C   2,C   1,C   0,H   5)    180.00 -0.000000    0.00    180.00   
    29. D(H   6,C   1,C   0,N   4)    180.00  0.000000   -0.00    180.00   
    30. D(C   3,C   2,C   1,H   6)   -180.00  0.000000   -0.00   -180.00   
    31. D(H   7,C   2,C   1,C   0)    180.00 -0.000000    0.00    180.00   
    32. D(C   3,C   2,C   1,C   0)      0.00  0.000000   -0.00      0.00   
    33. D(H   7,C   2,C   1,H   6)     -0.00 -0.000000    0.00     -0.00   
    34. D(H   8,C   3,C   2,H   7)      0.00  0.000000   -0.00      0.00   
    35. D(H   8,C   3,C   2,C   1)   -180.00  0.000000   -0.00   -180.00   
    36. D(N   4,C   3,C   2,H   7)   -180.00  0.000000   -0.00   -180.00   
    37. D(N   4,C   3,C   2,C   1)     -0.00 -0.000000    0.00     -0.00   
    38. D(H   9,N   4,C   0,C   1)    180.00  0.000000   -0.00    180.00   
    39. D(C   3,N   4,C   0,H   5)   -180.00  0.000000   -0.00   -180.00   
    40. D(C   3,N   4,C   0,C   1)     -0.00 -0.000000    0.00      0.00   
    41. D(H   9,N   4,C   3,H   8)     -0.00 -0.000000    0.00      0.00   
    42. D(H   9,N   4,C   3,C   2)   -180.00  0.000000   -0.00   -180.00   
    43. D(C   0,N   4,C   3,H   8)    180.00 -0.000000   -0.00    180.00   
    44. D(C   0,N   4,C   3,C   2)      0.00  0.000000   -0.00      0.00   
    45. D(H   9,N   4,C   0,H   5)      0.00  0.000000   -0.00      0.00   
    ----------------------------------------------------------------------------

         *************************************************************
         *                GEOMETRY OPTIMIZATION CYCLE   2            *
         *************************************************************
---------------------------------
CARTESIAN COORDINATES (ANGSTROEM)
---------------------------------
  C     -1.168337    0.010378    0.000141
  C     -0.376021    1.127962    0.000398
  C      0.970155    0.690290    0.000165
  C      0.953671   -0.679420   -0.000228
  N     -0.349447   -1.079307   -0.000239
  H     -2.239581   -0.098635    0.000200
  H     -0.725039    2.147141    0.000717
  H      1.851849    1.309250    0.000270
  H      1.755832   -1.397553   -0.000498
  H     -0.658723   -2.031626   -0.000485

----------------------------
CARTESIAN COORDINATES (A.U.)
----------------------------
  NO LB      ZA    FRAG     MASS         X           Y           Z
   0 C     6.0000    0    12.011   -2.207837    0.019612    0.000266
   1 C     6.0000    0    12.011   -0.710577    2.131539    0.000752
   2 C     6.0000    0    12.011    1.833328    1.304459    0.000311
   3 C     6.0000    0    12.011    1.802177   -1.283918   -0.000432
   4 N     7.0000    0    14.007   -0.660358   -2.039594   -0.000451
   5 H     1.0000    0     1.008   -4.232194   -0.186393    0.000377
   6 H     1.0000    0     1.008   -1.370125    4.057508    0.001355
   7 H     1.0000    0     1.008    3.499488    2.474124    0.000510
   8 H     1.0000    0     1.008    3.318042   -2.640993   -0.000941
   9 H     1.0000    0     1.008   -1.244806   -3.839216   -0.000916

--------------------------------
INTERNAL COORDINATES (ANGSTROEM)
--------------------------------
 C      0   0   0     0.000000000000     0.00000000     0.00000000
 C      1   0   0     1.369947833000     0.00000000     0.00000000
 C      2   1   0     1.415537985113   107.32440967     0.00000000
 C      3   2   1     1.369809054698   107.32098450     0.00000000
 N      1   2   3     1.363082802124   107.74049613     0.00000000
 H      1   2   3     1.076776100969   131.14550688   179.99971530
 H      2   1   3     1.077283468559   125.76134630   179.99989750
 H      3   2   1     1.077263080583   126.92017986   179.99987719
 H      4   3   2     1.076651130891   131.14693406   180.00007400
 H      5   1   2     1.001281045068   125.08361937   179.99981138

---------------------------
INTERNAL COORDINATES (A.U.)
---------------------------
 C      0   0   0     0.000000000000     0.00000000     0.00000000
 C      1   0   0     2.588826222129     0.00000000     0.00000000
 C      2   1   0     2.674979124026   107.32440967     0.00000000
 C      3   2   1     2.588563969145   107.32098450     0.00000000
 N      1   2   3     2.575853193873   107.74049613     0.00000000
 H      1   2   3     2.034811938383   131.14550688   179.99971530
 H      2   1   3     2.035770724177   125.76134630   179.99989750
 H      3   2   1     2.035732196486   126.92017986   179.99987719
 H      4   3   2     2.034575779161   131.14693406   180.00007400
 H      5   1   2     1.892146958265   125.08361937   179.99981138



           ************************************************************
           *        Program running with 4 parallel MPI-processes     *
           *              working on a common directory               *
           ************************************************************
 One Electron integrals                  ... done
 Pre-screening matrix                    ... done


           ************************************************************
           *        Program running with 4 parallel MPI-processes     *
           *              working on a common directory               *
           ************************************************************

Diagonalization of the overlap matrix:
Smallest eigenvalue                        ... 1.156e-03
Time for diagonalization                   ...    0.002 sec
Threshold for overlap eigenvalues          ... 1.000e-08
Number of eigenvalues below threshold      ... 0
Time for construction of square roots      ...    0.001 sec
Total time needed                          ...    0.003 sec

-------------------
DFT GRID GENERATION
-------------------

General Integration Accuracy     IntAcc      ...  4.340
Radial Grid Type                 RadialGrid  ... Gauss-Chebyshev
Angular Grid (max. acc.)         AngularGrid ... Lebedev-194
Angular grid pruning method      GridPruning ... 3 (G Style)
Weight generation scheme         WeightScheme... Becke
Basis function cutoff            BFCut       ...    1.0000e-11
Integration weight cutoff        WCut        ...    1.0000e-14
Grids for H and He will be reduced by one unit

# of grid points (after initial pruning)     ...  24080 (   0.0 sec)
# of grid points (after weights+screening)   ...  22681 (   0.0 sec)
nearest neighbour list constructed           ...    0.0 sec
Grid point re-assignment to atoms done       ...    0.0 sec
Grid point division into batches done        ...    0.1 sec
Reduced shell lists constructed in    0.1 sec

Total number of grid points                  ...    22681
Total number of batches                      ...      359
Average number of points per batch           ...       63
Average number of grid points per atom       ...     2268
Average number of shells per batch           ...    38.13 (84.74%)
Average number of basis functions per batch  ...    77.65 (91.35%)
Average number of large shells per batch     ...    34.34 (90.06%)
Average number of large basis fcns per batch ...    73.20 (94.27%)
Maximum spatial batch extension              ...   3.87,  3.95, 18.58 au
Average spatial batch extension              ...   0.38,  0.37,  0.59 au

Time for grid setup =    0.138 sec

--------------
SCF ITERATIONS
--------------
ITER       Energy         Delta-E        Max-DP      RMS-DP      [F,P]     Damp
               ***  Starting incremental Fock matrix formation  ***
                      *** Initiating the SOSCF procedure ***
                      *** Re-Reading the Fockian *** 
                      *** Removing any level shift *** 
ITER      Energy       Delta-E        Grad      Rot      Max-DP    RMS-DP
  0   -209.71442484 -209.7144248375  0.002013  0.002013  0.004524  0.000243
               *** Restarting incremental Fock matrix formation ***
  1   -209.71451864  -0.0000938056  0.000875  0.001335  0.003022  0.000094
  2   -209.71451991  -0.0000012687  0.000856  0.001116  0.001557  0.000050
  3   -209.71452911  -0.0000092022  0.000104  0.000222  0.000312  0.000017
  4   -209.71452912  -0.0000000038  0.000117  0.000095  0.000162  0.000008
  5   -209.71452935  -0.0000002323  0.000007  0.000017  0.000021  0.000001
  6   -209.71452935   0.0000000005  0.000007  0.000006  0.000009  0.000000
                 **** Energy Check signals convergence ****
              ***Rediagonalizing the Fockian in SOSCF/NRSCF***

               *****************************************************
               *                     SUCCESS                       *
               *           SCF CONVERGED AFTER   7 CYCLES          *
               *****************************************************

Total Energy       :         -209.71452935 Eh           -5706.62246 eV
  Last Energy change         ...   -2.6061e-09  Tolerance :   1.0000e-08
  Last MAX-Density change    ...    1.0221e-06  Tolerance :   1.0000e-07
             **** THE GBW FILE WAS UPDATED (pyrrole.gbw) ****
             **** DENSITY FILE WAS UPDATED (pyrrole.scfp.tmp) ****
             **** ENERGY FILE WAS UPDATED (pyrrole.en.tmp) ****
Total SCF time: 0 days 0 hours 0 min 4 sec 


-------------------------------------------------------------------------------
                          DFT DISPERSION CORRECTION                            
                                                                               
                              DFTD3 V3.1  Rev 1                                
                          USING Becke-Johnson damping                          
-------------------------------------------------------------------------------
-------------------------   ----------------
Dispersion correction           -0.004127395
-------------------------   ----------------

------------------   -----------------
gCP correction             0.014708903
------------------   -----------------

-------------------------   --------------------
FINAL SINGLE POINT ENERGY      -209.703947844214
-------------------------   --------------------



           ************************************************************
           *        Program running with 4 parallel MPI-processes     *
           *              working on a common directory               *
           ************************************************************
------------------------------------------------------------------------------
                         ORCA SCF GRADIENT CALCULATION
------------------------------------------------------------------------------

Gradient of the Kohn-Sham DFT energy:
Kohn-Sham wavefunction type      ... RKS
Hartree-Fock exchange scaling    ...    0.420
Number of operators              ...    1
Number of atoms                  ...   10
Basis set dimensions             ...   85
Integral neglect threshold       ... 2.5e-11
Integral primitive cutoff        ... 2.5e-12

Nuclear repulsion gradient       ... done
One Electron Gradient            ... done
Pre-screening matrix             ... done
Starting the two electron gradient:
Will do only exchange terms
Two electron gradient done
RI-J gradient                    ... done
Exchange-correlation gradient    ... done
Dispersion correction            ... done
gCP correction                   ... done

------------------
CARTESIAN GRADIENT
------------------

   1   C   :   -0.001306415    0.002245689    0.000000429
   2   C   :    0.001578469    0.000099597   -0.000000076
   3   C   :   -0.001222494    0.001037066    0.000000757
   4   C   :    0.002352191    0.000984969   -0.000000047
   5   N   :   -0.001168845   -0.003893408   -0.000000954
   6   H   :    0.000216457   -0.000836481   -0.000000119
   7   H   :   -0.000085048   -0.000267835   -0.000000125
   8   H   :   -0.000077983   -0.000268483   -0.000000410
   9   H   :   -0.000659233   -0.000533859    0.000000304
  10   H   :    0.000372901    0.001432744    0.000000240

Difference to translation invariance:
           :    0.0000000000    0.0000000000    0.0000000000

Norm of the cartesian gradient     ...    0.0062180552
RMS gradient                       ...    0.0011352564
MAX gradient                       ...    0.0038934080

-------
TIMINGS
-------

Total SCF gradient time            ...        2.097 sec

One electron gradient       ....       0.017 sec  (  0.8%)
Prescreening matrices       ....       0.027 sec  (  1.3%)
Two electron gradient       ....       1.070 sec  ( 51.0%)
RI-J Coulomb gradient       ....       0.246 sec  ( 11.7%)
XC gradient                 ....       0.415 sec  ( 19.8%)
------------------------------------------------------------------------------
                         ORCA GEOMETRY RELAXATION STEP
------------------------------------------------------------------------------

Reading the OPT-File                    .... done
Getting information on internals        .... done
Copying old internal coords+grads       .... done
Making the new internal coordinates     .... (new redundants).... done
Validating the new internal coordinates .... (new redundants).... done
Calculating the B-matrix                .... done
Calculating the G,G- and P matrices     .... done
Transforming gradient to internals      .... done
Projecting the internal gradient        .... done
Number of atoms                         ....  10
Number of internal coordinates          ....  45
Current Energy                          ....  -209.703947844 Eh
Current gradient norm                   ....     0.006218055 Eh/bohr
Maximum allowed component of the step   ....  0.300
Current trust radius                    ....  0.300
Updating the Hessian (BFGS)             .... done
Forming the augmented Hessian           .... done
Diagonalizing the augmented Hessian     .... done
Last element of RFO vector              ....  0.999968251
Lowest eigenvalues of augmented Hessian:
 -0.000025811  0.024915488  0.026744683  0.026932945  0.029112629
Length of the computed step             ....  0.007968749
The final length of the internal step   ....  0.007968749
Converting the step to cartesian space:
 Initial RMS(Int)=    0.0011879110
Transforming coordinates:
 Iter   0:  RMS(Cart)=    0.0010627173 RMS(Int)=    1.8732828516
 Iter   1:  RMS(Cart)=    0.0000013215 RMS(Int)=    0.0000008849
 Iter   2:  RMS(Cart)=    0.0000000016 RMS(Int)=    0.0000000012
done
Storing new coordinates                 .... done

                                .--------------------.
          ----------------------|Geometry convergence|-------------------------
          Item                value                   Tolerance       Converged
          ---------------------------------------------------------------------
          Energy change      -0.0004638344            0.0000050000      NO
          RMS gradient        0.0004920321            0.0001000000      NO
          MAX gradient        0.0014778646            0.0003000000      NO
          RMS step            0.0011879110            0.0020000000      YES
          MAX step            0.0030350976            0.0040000000      YES
          ........................................................
          Max(Bonds)      0.0016      Max(Angles)    0.16
          Max(Dihed)        0.00      Max(Improp)    0.00
          ---------------------------------------------------------------------

The optimization has not yet converged - more geometry cycles are needed


    ---------------------------------------------------------------------------
                         Redundant Internal Coordinates
                            (Angstroem and degrees)

        Definition                    Value    dE/dq     Step     New-Value
    ----------------------------------------------------------------------------
     1. B(C   1,C   0)                1.3699  0.000498 -0.0006    1.3694   
     2. B(C   2,C   1)                1.4155 -0.000716  0.0008    1.4163   
     3. B(C   3,C   2)                1.3698  0.000555 -0.0006    1.3692   
     4. B(N   4,C   3)                1.3631  0.001329 -0.0015    1.3616   
     5. B(N   4,C   0)                1.3631  0.001327 -0.0015    1.3616   
     6. B(H   5,C   0)                1.0768 -0.000130  0.0001    1.0768   
     7. B(H   6,C   1)                1.0773 -0.000226  0.0002    1.0775   
     8. B(H   7,C   2)                1.0773 -0.000218  0.0002    1.0774   
     9. B(H   8,C   3)                1.0767 -0.000136  0.0001    1.0767   
    10. B(H   9,N   4)                1.0013 -0.001478  0.0016    1.0029   
    11. A(C   1,C   0,H   5)          131.15  0.000895   -0.15    131.00   
    12. A(N   4,C   0,H   5)          121.11 -0.000859    0.16    121.27   
    13. A(C   1,C   0,N   4)          107.74 -0.000035   -0.01    107.73   
    14. A(C   0,C   1,H   6)          125.76 -0.000349    0.05    125.81   
    15. A(C   0,C   1,C   2)          107.32  0.000342   -0.04    107.29   
    16. A(C   2,C   1,H   6)          126.91  0.000007   -0.01    126.90   
    17. A(C   3,C   2,H   7)          125.76 -0.000344    0.05    125.81   
    18. A(C   1,C   2,H   7)          126.92 -0.000004   -0.01    126.91   
    19. A(C   1,C   2,C   3)          107.32  0.000347   -0.04    107.28   
    20. A(N   4,C   3,H   8)          121.10 -0.000811    0.15    121.25   
    21. A(C   2,C   3,H   8)          131.15  0.000877   -0.15    131.00   
    22. A(C   2,C   3,N   4)          107.75 -0.000065   -0.00    107.75   
    23. A(C   3,N   4,H   9)          125.05  0.000371   -0.06    125.00   
    24. A(C   0,N   4,H   9)          125.08  0.000218   -0.03    125.05   
    25. A(C   0,N   4,C   3)          109.86 -0.000589    0.08    109.95   
    26. D(H   6,C   1,C   0,H   5)     -0.00 -0.000000    0.00     -0.00   
    27. D(C   2,C   1,C   0,N   4)     -0.00  0.000000   -0.00     -0.00   
    28. D(C   2,C   1,C   0,H   5)    180.00 -0.000000    0.00    180.00   
    29. D(H   6,C   1,C   0,N   4)    180.00 -0.000000   -0.00    180.00   
    30. D(C   3,C   2,C   1,H   6)   -180.00 -0.000000    0.00   -180.00   
    31. D(H   7,C   2,C   1,C   0)    180.00 -0.000000    0.00    180.00   
    32. D(C   3,C   2,C   1,C   0)      0.00 -0.000000    0.00      0.00   
    33. D(H   7,C   2,C   1,H   6)     -0.00 -0.000000    0.00      0.00   
    34. D(H   8,C   3,C   2,H   7)      0.00  0.000000   -0.00     -0.00   
    35. D(H   8,C   3,C   2,C   1)   -180.00  0.000000   -0.00   -180.00   
    36. D(N   4,C   3,C   2,H   7)   -180.00  0.000000   -0.00   -180.00   
    37. D(N   4,C   3,C   2,C   1)     -0.00  0.000000   -0.00     -0.00   
    38. D(H   9,N   4,C   0,C   1)    180.00  0.000000   -0.00    180.00   
    39. D(C   3,N   4,C   0,H   5)   -180.00  0.000000   -0.00   -180.00   
    40. D(C   3,N   4,C   0,C   1)      0.00  0.000000   -0.00     -0.00   
    41. D(H   9,N   4,C   3,H   8)      0.00 -0.000000    0.00      0.00   
    42. D(H   9,N   4,C   3,C   2)   -180.00 -0.000000    0.00   -180.00   
    43. D(C   0,N   4,C   3,H   8)    180.00 -0.000000    0.00    180.00   
    44. D(C   0,N   4,C   3,C   2)      0.00 -0.000000    0.00      0.00   
    45. D(H   9,N   4,C   0,H   5)      0.00  0.000000   -0.00     -0.00   
    ----------------------------------------------------------------------------

         *************************************************************
         *                GEOMETRY OPTIMIZATION CYCLE   3            *
         *************************************************************
---------------------------------
CARTESIAN COORDINATES (ANGSTROEM)
---------------------------------
  C     -1.167922    0.009732    0.000141
  C     -0.376641    1.127323    0.000397
  C      0.970268    0.689400    0.000165
  C      0.952885   -0.679651   -0.000230
  N     -0.349103   -1.078153   -0.000237
  H     -2.239440   -0.097147    0.000199
  H     -0.725512    2.146762    0.000715
  H      1.852021    1.308600    0.000274
  H      1.756448   -1.396311   -0.000502
  H     -0.658645   -2.032075   -0.000481

----------------------------
CARTESIAN COORDINATES (A.U.)
----------------------------
  NO LB      ZA    FRAG     MASS         X           Y           Z
   0 C     6.0000    0    12.011   -2.207052    0.018391    0.000267
   1 C     6.0000    0    12.011   -0.711748    2.130331    0.000750
   2 C     6.0000    0    12.011    1.833541    1.302777    0.000311
   3 C     6.0000    0    12.011    1.800692   -1.284354   -0.000434
   4 N     7.0000    0    14.007   -0.659710   -2.037415   -0.000448
   5 H     1.0000    0     1.008   -4.231928   -0.183581    0.000376
   6 H     1.0000    0     1.008   -1.371019    4.056793    0.001351
   7 H     1.0000    0     1.008    3.499813    2.472896    0.000517
   8 H     1.0000    0     1.008    3.319207   -2.638645   -0.000949
   9 H     1.0000    0     1.008   -1.244659   -3.840066   -0.000910

--------------------------------
INTERNAL COORDINATES (ANGSTROEM)
--------------------------------
 C      0   0   0     0.000000000000     0.00000000     0.00000000
 C      1   0   0     1.369355175255     0.00000000     0.00000000
 C      2   1   0     1.416311926430   107.28842838     0.00000000
 C      3   2   1     1.369160718144   107.28355938     0.00000000
 N      1   2   3     1.361601754816   107.73291921     0.00000000
 H      1   2   3     1.076835290066   130.99558253   179.99982798
 H      2   1   3     1.077482529841   125.80868942   179.99994068
 H      3   2   1     1.077449940725   126.91102840   180.00019279
 H      4   3   2     1.076715118697   131.00083144   179.99983937
 H      5   1   2     1.002887149517   125.05442753   179.99974869

---------------------------
INTERNAL COORDINATES (A.U.)
---------------------------
 C      0   0   0     0.000000000000     0.00000000     0.00000000
 C      1   0   0     2.587706261300     0.00000000     0.00000000
 C      2   1   0     2.676441661160   107.28842838     0.00000000
 C      3   2   1     2.587338790615   107.28355938     0.00000000
 N      1   2   3     2.573054420069   107.73291921     0.00000000
 H      1   2   3     2.034923789567   130.99558253   179.99982798
 H      2   1   3     2.036146895485   125.80868942   179.99994068
 H      3   2   1     2.036085310980   126.91102840   180.00019279
 H      4   3   2     2.034696698591   131.00083144   179.99983937
 H      5   1   2     1.895182055815   125.05442753   179.99974869



           ************************************************************
           *        Program running with 4 parallel MPI-processes     *
           *              working on a common directory               *
           ************************************************************
 One Electron integrals                  ... done
 Pre-screening matrix                    ... done


           ************************************************************
           *        Program running with 4 parallel MPI-processes     *
           *              working on a common directory               *
           ************************************************************

Diagonalization of the overlap matrix:
Smallest eigenvalue                        ... 1.156e-03
Time for diagonalization                   ...    0.002 sec
Threshold for overlap eigenvalues          ... 1.000e-08
Number of eigenvalues below threshold      ... 0
Time for construction of square roots      ...    0.001 sec
Total time needed                          ...    0.003 sec

-------------------
DFT GRID GENERATION
-------------------

General Integration Accuracy     IntAcc      ...  4.340
Radial Grid Type                 RadialGrid  ... Gauss-Chebyshev
Angular Grid (max. acc.)         AngularGrid ... Lebedev-194
Angular grid pruning method      GridPruning ... 3 (G Style)
Weight generation scheme         WeightScheme... Becke
Basis function cutoff            BFCut       ...    1.0000e-11
Integration weight cutoff        WCut        ...    1.0000e-14
Grids for H and He will be reduced by one unit

# of grid points (after initial pruning)     ...  24080 (   0.0 sec)
# of grid points (after weights+screening)   ...  22682 (   0.0 sec)
nearest neighbour list constructed           ...    0.0 sec
Grid point re-assignment to atoms done       ...    0.0 sec
Grid point division into batches done        ...    0.1 sec
Reduced shell lists constructed in    0.1 sec

Total number of grid points                  ...    22682
Total number of batches                      ...      358
Average number of points per batch           ...       63
Average number of grid points per atom       ...     2268
Average number of shells per batch           ...    38.11 (84.69%)
Average number of basis functions per batch  ...    77.63 (91.33%)
Average number of large shells per batch     ...    34.33 (90.08%)
Average number of large basis fcns per batch ...    73.16 (94.25%)
Maximum spatial batch extension              ...   3.87,  4.25, 18.58 au
Average spatial batch extension              ...   0.38,  0.37,  0.60 au

Time for grid setup =    0.136 sec

--------------
SCF ITERATIONS
--------------
ITER       Energy         Delta-E        Max-DP      RMS-DP      [F,P]     Damp
               ***  Starting incremental Fock matrix formation  ***
                      *** Initiating the SOSCF procedure ***
                      *** Re-Reading the Fockian *** 
                      *** Removing any level shift *** 
ITER      Energy       Delta-E        Grad      Rot      Max-DP    RMS-DP
  0   -209.71455063 -209.7145506272  0.000293  0.000293  0.000618  0.000039
               *** Restarting incremental Fock matrix formation ***
  1   -209.71455360  -0.0000029709  0.000083  0.000151  0.000165  0.000012
  2   -209.71455379  -0.0000001889  0.000067  0.000105  0.000129  0.000007
  3   -209.71455384  -0.0000000569  0.000026  0.000044  0.000046  0.000003
  4   -209.71455385  -0.0000000093  0.000012  0.000016  0.000024  0.000001
                 **** Energy Check signals convergence ****
              ***Rediagonalizing the Fockian in SOSCF/NRSCF***

               *****************************************************
               *                     SUCCESS                       *
               *           SCF CONVERGED AFTER   5 CYCLES          *
               *****************************************************

Total Energy       :         -209.71455385 Eh           -5706.62313 eV
  Last Energy change         ...    9.8623e-10  Tolerance :   1.0000e-08
  Last MAX-Density change    ...    9.1794e-06  Tolerance :   1.0000e-07
             **** THE GBW FILE WAS UPDATED (pyrrole.gbw) ****
             **** DENSITY FILE WAS UPDATED (pyrrole.scfp.tmp) ****
             **** ENERGY FILE WAS UPDATED (pyrrole.en.tmp) ****
Total SCF time: 0 days 0 hours 0 min 3 sec 


-------------------------------------------------------------------------------
                          DFT DISPERSION CORRECTION                            
                                                                               
                              DFTD3 V3.1  Rev 1                                
                          USING Becke-Johnson damping                          
-------------------------------------------------------------------------------
-------------------------   ----------------
Dispersion correction           -0.004126519
-------------------------   ----------------

------------------   -----------------
gCP correction             0.014716151
------------------   -----------------

-------------------------   --------------------
FINAL SINGLE POINT ENERGY      -209.703964220474
-------------------------   --------------------



           ************************************************************
           *        Program running with 4 parallel MPI-processes     *
           *              working on a common directory               *
           ************************************************************
------------------------------------------------------------------------------
                         ORCA SCF GRADIENT CALCULATION
------------------------------------------------------------------------------

Gradient of the Kohn-Sham DFT energy:
Kohn-Sham wavefunction type      ... RKS
Hartree-Fock exchange scaling    ...    0.420
Number of operators              ...    1
Number of atoms                  ...   10
Basis set dimensions             ...   85
Integral neglect threshold       ... 2.5e-11
Integral primitive cutoff        ... 2.5e-12

Nuclear repulsion gradient       ... done
One Electron Gradient            ... done
Pre-screening matrix             ... done
Starting the two electron gradient:
Will do only exchange terms
Two electron gradient done
RI-J gradient                    ... done
Exchange-correlation gradient    ... done
Dispersion correction            ... done
gCP correction                   ... done

------------------
CARTESIAN GRADIENT
------------------

   1   C   :   -0.000256362    0.001241610    0.000000141
   2   C   :    0.000601172   -0.000488314   -0.000000405
   3   C   :   -0.000769083   -0.000048510    0.000000556
   4   C   :    0.000910448    0.000840296   -0.000000341
   5   N   :   -0.000047448   -0.000356885    0.000000305
   6   H   :    0.000142434   -0.000550507   -0.000000128
   7   H   :   -0.000103082   -0.000111933   -0.000000120
   8   H   :    0.000023751   -0.000162315   -0.000000140
   9   H   :   -0.000436771   -0.000352799    0.000000163
  10   H   :   -0.000065060   -0.000010644   -0.000000031

Difference to translation invariance:
           :   -0.0000000000    0.0000000000   -0.0000000000

Norm of the cartesian gradient     ...    0.0022712638
RMS gradient                       ...    0.0004146741
MAX gradient                       ...    0.0012416099

-------
TIMINGS
-------

Total SCF gradient time            ...        2.062 sec

One electron gradient       ....       0.019 sec  (  0.9%)
Prescreening matrices       ....       0.030 sec  (  1.4%)
Two electron gradient       ....       1.047 sec  ( 50.8%)
RI-J Coulomb gradient       ....       0.240 sec  ( 11.6%)
XC gradient                 ....       0.406 sec  ( 19.7%)
------------------------------------------------------------------------------
                         ORCA GEOMETRY RELAXATION STEP
------------------------------------------------------------------------------

Reading the OPT-File                    .... done
Getting information on internals        .... done
Copying old internal coords+grads       .... done
Making the new internal coordinates     .... (new redundants).... done
Validating the new internal coordinates .... (new redundants).... done
Calculating the B-matrix                .... done
Calculating the G,G- and P matrices     .... done
Transforming gradient to internals      .... done
Projecting the internal gradient        .... done
Number of atoms                         ....  10
Number of internal coordinates          ....  45
Current Energy                          ....  -209.703964220 Eh
Current gradient norm                   ....     0.002271264 Eh/bohr
[...]
     15       0.000000   0.000000   0.000000   0.000000   0.000000   0.000000
     16       0.000000   0.000000   0.000000   0.000000   0.000000   0.000000
     17       0.000000   0.000000   0.000000   0.000000   0.000000   0.000000
     18       0.000000   0.000000   0.000000   0.000000   0.000000   0.000000
     19       0.000000   0.000000   0.000000   0.000000   0.000000   0.000000
     20       0.000000   0.000000   0.000000   0.000000   0.000000   0.000000
     21       0.000000   0.000000   0.000000   0.000000   0.000000   0.000000
     22       0.000000   0.000000   0.000000   0.000000   0.000000   0.000000
     23       0.000000   0.000000   0.000000   0.000000   0.000000   0.000000
     24       0.000000   0.000000   0.000000   0.000000   0.000000   0.000000
     25       0.000000   0.000000   0.000000   0.000000   0.000000   0.000000
     26       0.000000   0.000000   0.000000   0.000000   0.000000   0.000000
     27       0.000000   0.000000   0.000000   0.000000   0.000000   0.000000
     28       0.000000   0.000000   0.000000   0.000000   0.000000   0.000000
     29       0.000000   0.000000   0.000000   0.000000   0.000000   0.000000
                  6          7          8          9         10         11    
      0      -0.000007  -0.000013  -0.000011  -0.000008  -0.000006  -0.000010
      1       0.000017   0.000041   0.000048   0.000032   0.000020   0.000025
      2      -0.049141  -0.146183  -0.171012  -0.109203  -0.080501  -0.076240
      3       0.000001   0.000021   0.000005  -0.000001  -0.000005   0.000007
      4       0.000001  -0.000074  -0.000026   0.000007   0.000013  -0.000019
      5      -0.010047   0.260131   0.091646  -0.026564  -0.037669   0.071174
      6      -0.000003  -0.000020   0.000009  -0.000000   0.000002   0.000002
      7       0.000003   0.000073  -0.000025  -0.000008   0.000010  -0.000026
      8      -0.010783  -0.259487   0.091806   0.027956  -0.036495   0.076333
      9      -0.000000   0.000010  -0.000014   0.000012  -0.000011  -0.000004
     10       0.000014  -0.000040   0.000046  -0.000035   0.000021   0.000023
     11      -0.048109   0.146093  -0.169022   0.117415  -0.072414  -0.077829
     12       0.000014   0.000001   0.000012  -0.000001   0.000005   0.000003
     13      -0.000050   0.000001  -0.000043   0.000001  -0.000011  -0.000003
     14       0.177434  -0.000577   0.154623  -0.002764   0.042084   0.011248
     15      -0.000015  -0.000036  -0.000030   0.000049   0.000037   0.000033
     16       0.000047   0.000120   0.000122  -0.000173  -0.000141  -0.000146
     17      -0.154116  -0.425417  -0.430654   0.604271   0.459351   0.505105
     18       0.000014   0.000038  -0.000012   0.000028   0.000036  -0.000022
     19      -0.000032  -0.000133   0.000018  -0.000086  -0.000150   0.000133
     20       0.100086   0.475089  -0.061180   0.300283   0.541936  -0.454802
     21       0.000001  -0.000035  -0.000000  -0.000033   0.000054  -0.000045
     22      -0.000026   0.000133   0.000019   0.000100  -0.000157   0.000136
     23       0.097786  -0.480226  -0.066015  -0.337061   0.522894  -0.478997
     24      -0.000009   0.000030  -0.000037  -0.000048   0.000024   0.000047
     25       0.000044  -0.000122   0.000122   0.000182  -0.000120  -0.000142
     26      -0.155797   0.430087  -0.441314  -0.635457   0.415744   0.510139
     27      -0.000081   0.000005   0.000054  -0.000008   0.000024  -0.000005
     28       0.000260   0.000000  -0.000196   0.000004  -0.000047   0.000040
     29      -0.946555   0.001873   0.716330  -0.008053   0.181094  -0.159547
                 12         13         14         15         16         17    
      0      -0.218267  -0.239064  -0.000007  -0.024212  -0.095993   0.085616
      1      -0.093991   0.029173  -0.000015   0.038830  -0.015834  -0.077878
      2      -0.000010   0.000023   0.049997   0.000013   0.000004  -0.000029
      3       0.147562  -0.061482  -0.000015   0.083722   0.019997   0.066523
      4      -0.325628  -0.116172   0.000031  -0.052464   0.048851   0.035099
      5      -0.000107  -0.000014  -0.111131  -0.000025   0.000012   0.000006
      6       0.311053  -0.018934   0.000008  -0.098326  -0.012611  -0.033086
      7       0.176412  -0.130306  -0.000040   0.006865  -0.050809   0.067667
      8       0.000032  -0.000054   0.108104   0.000010  -0.000014   0.000022
      9      -0.120921   0.210815   0.000004   0.042252  -0.068503  -0.114682
     10       0.204169  -0.117103   0.000007   0.017136   0.068989  -0.012746
     11       0.000067  -0.000043  -0.047562  -0.000002   0.000027   0.000006
     12      -0.101716   0.097347   0.000007  -0.027632   0.049935   0.006459
     13       0.033362   0.299403   0.000016  -0.084855  -0.016295   0.020427
     14       0.000018   0.000076   0.000022  -0.000022  -0.000008   0.000006
     15      -0.251459  -0.209230  -0.000031  -0.054879  -0.072986   0.137445
     16       0.230089  -0.357947   0.000054   0.350087  -0.339560  -0.552254
     17       0.000088  -0.000055  -0.288300   0.000095  -0.000099  -0.000169
     18       0.025940   0.388170   0.000067   0.583966   0.513539   0.369408
     19      -0.371876   0.033734  -0.000176   0.111176   0.221633   0.137258
     20      -0.000106  -0.000105   0.648889   0.000018   0.000015  -0.000001
     21       0.240369  -0.294177  -0.000056  -0.407222   0.284002  -0.218834
     22       0.284693   0.255339   0.000181   0.434514  -0.479818   0.329873
     23       0.000024   0.000206  -0.627661   0.000169  -0.000150   0.000109
     24      -0.339266  -0.040816   0.000017   0.250268   0.139583  -0.436386
     25      -0.039644  -0.412360  -0.000098   0.251013   0.316120  -0.366868
     26       0.000016  -0.000155   0.270289   0.000067   0.000054  -0.000072
     27       0.314793   0.098148   0.000009  -0.029108   0.314044   0.006533
     28      -0.101704   0.305474   0.000017  -0.091190  -0.101993   0.023468
     29      -0.000056   0.000101   0.003537   0.000002  -0.000052  -0.000003
                 18         19         20         21         22         23    
      0       0.022594   0.204455  -0.032340  -0.169831  -0.093325  -0.019413
      1      -0.049186  -0.021894   0.092131  -0.045648   0.170806  -0.256738
      2      -0.000016  -0.000023   0.000029   0.000000   0.000057  -0.000072
      3       0.021625   0.121111   0.076501   0.343214  -0.030091  -0.016747
      4      -0.031975  -0.242115   0.031097   0.050817  -0.087152   0.113991
      5      -0.000010  -0.000080   0.000003  -0.000014  -0.000023   0.000035
      6       0.035420  -0.240778   0.043547  -0.247764   0.026900   0.080757
      7       0.012699  -0.124725  -0.070135   0.242798   0.088365   0.081047
      8       0.000001  -0.000016  -0.000024   0.000089   0.000023   0.000017
      9       0.046472  -0.179234  -0.080326   0.110847  -0.175678  -0.135544
     10       0.026874   0.102312  -0.055474  -0.136633  -0.083202  -0.218025
     11       0.000003   0.000043  -0.000009  -0.000049  -0.000009  -0.000050
     12      -0.097254   0.076678  -0.000316  -0.005112   0.296654   0.042347
     13       0.032063   0.232917   0.000180  -0.015430  -0.096555   0.128848
     14       0.000017   0.000061   0.000000  -0.000005  -0.000052   0.000034
     15       0.064195   0.205187   0.013939  -0.189065  -0.083489  -0.105603
     16      -0.489267   0.324988  -0.426938  -0.141758  -0.032255   0.586961
     17      -0.000144   0.000077  -0.000126  -0.000028  -0.000002   0.000181
     18       0.050417  -0.165535  -0.452051  -0.486634   0.028421   0.102088
     19      -0.026399  -0.378892  -0.145541  -0.235714  -0.073819   0.186252
     20      -0.000012  -0.000094  -0.000005  -0.000013  -0.000024   0.000028
     21       0.056124  -0.088727  -0.279385   0.254235   0.066379   0.024561
     22      -0.009987  -0.405003   0.382973  -0.476503   0.043029   0.212633
     23      -0.000009  -0.000105   0.000133  -0.000149   0.000004   0.000050
     24       0.340387   0.020944   0.261603   0.068783  -0.049101   0.428668
     25       0.360235   0.379441   0.336069  -0.226693   0.074267   0.411791
     26       0.000088   0.000108   0.000068  -0.000057   0.000024   0.000077
     27      -0.662398   0.088020   0.372334  -0.010810  -0.841091   0.045547
     28       0.215407   0.255804  -0.120680  -0.031526   0.272186   0.145035
     29       0.000114   0.000068  -0.000064   0.000011   0.000146   0.000019
                 24         25         26         27         28         29    
      0       0.122206   0.028974  -0.041791  -0.060637   0.043159  -0.003025
      1       0.170289   0.001651  -0.001512  -0.008855   0.005941   0.001553
      2       0.000039  -0.000002   0.000003   0.000002  -0.000002   0.000001
      3      -0.145328  -0.017277   0.015932  -0.006757   0.013327   0.001113
      4      -0.177509   0.053831  -0.039610   0.035613  -0.040429   0.000966
      5      -0.000039   0.000017  -0.000012   0.000011  -0.000013   0.000000
      6      -0.012770  -0.041668  -0.041830  -0.016900  -0.038920  -0.000324
      7       0.229754  -0.030845  -0.027076  -0.018022  -0.029170   0.001430
      8       0.000066  -0.000006  -0.000004  -0.000004  -0.000005   0.000001
      9      -0.002096   0.019013   0.032871  -0.038337  -0.039807   0.003341
     10      -0.211141  -0.015706  -0.025455   0.037242   0.038375  -0.000536
     11      -0.000060  -0.000006  -0.000010   0.000014   0.000014  -0.000000
     12      -0.092637  -0.000303   0.000170   0.003469   0.000601  -0.023197
     13       0.030591   0.000089   0.000246  -0.001239   0.000630  -0.071589
     14       0.000016   0.000000   0.000000  -0.000001   0.000000  -0.000018
     15       0.205687  -0.344463   0.473854   0.660841  -0.451098   0.012712
     16      -0.256275  -0.030428   0.042983   0.065326  -0.045453  -0.000964
     17      -0.000087   0.000018  -0.000025  -0.000033   0.000023  -0.000001
     18       0.371690   0.208651  -0.156645   0.117732  -0.141576   0.000033
     19      -0.035896  -0.618055   0.450416  -0.359911   0.416584  -0.000047
     20      -0.000036  -0.000191   0.000138  -0.000111   0.000129  -0.000003
     21       0.321792   0.489267   0.457937   0.206329   0.411195  -0.000076
     22      -0.188544   0.347019   0.319188   0.150881   0.290958  -0.000056
     23      -0.000087   0.000061   0.000054   0.000026   0.000051  -0.000002
     24       0.319586  -0.223327  -0.358336   0.436848   0.433504  -0.011002
     25       0.088187   0.194567   0.313412  -0.388361  -0.386959   0.006825
     26       0.000014   0.000073   0.000118  -0.000144  -0.000148   0.000002
     27       0.521164   0.004649  -0.004295  -0.008718   0.004638   0.307506
     28      -0.168332  -0.000762  -0.013465   0.001426   0.017375   0.948377
     29      -0.000091  -0.000000  -0.000007   0.000001   0.000002   0.000235


-----------
IR SPECTRUM
-----------

 Mode    freq (cm**-1)   T**2         TX         TY         TZ
-------------------------------------------------------------------
   6:       528.66   93.247904  ( -0.001395  -0.001001  -9.656495)
   7:       649.40    0.000106  ( -0.000828   0.001182   0.010207)
   8:       663.36    0.061118  (  0.001824   0.001229   0.247211)
   9:       733.37    0.212839  (  0.000353  -0.001327  -0.461343)
  10:       763.48  164.963085  (  0.000933   0.000689  12.843796)
  11:       880.77    1.195354  ( -0.002244  -0.001047  -1.093320)
  12:       900.69    1.400190  (  1.127816  -0.358079  -0.000308)
  13:       925.08    0.340760  ( -0.188497  -0.552475   0.000024)
  14:       927.37    0.001445  ( -0.000126   0.001979   0.037967)
  15:      1073.74   30.977670  (  1.723877   5.292062   0.001915)
  16:      1108.47   29.380239  (  5.154816  -1.675742  -0.001027)
  17:      1132.68    9.458441  ( -0.969234  -2.918737  -0.000948)
  18:      1203.57    4.278268  ( -1.973713   0.618646   0.000398)
  19:      1225.35    3.367143  ( -0.553783  -1.749419  -0.000443)
  20:      1356.78    2.369303  (  1.468165  -0.462379  -0.000246)
  21:      1490.78    4.209225  ( -0.629684  -1.952620  -0.000340)
  22:      1535.84    6.416683  ( -2.414802   0.765123   0.000456)
  23:      1570.46    7.875898  ( -0.860886  -2.671099  -0.000914)
  24:      1645.83    6.000076  (  2.328639  -0.759944  -0.000341)
  25:      3328.64    1.669645  ( -1.201786   0.474716   0.000211)
  26:      3338.35    1.951404  ( -0.537707  -1.289292  -0.000415)
  27:      3351.21    2.049498  ( -1.340220   0.503297   0.000300)
  28:      3357.59    0.092745  ( -0.206445  -0.223888  -0.000049)
  29:      3764.20   86.600332  (  2.879845   8.849114   0.002168)

The first frequency considered to be a vibration is 6
The total number of vibrations considered is 24


--------------------------
THERMOCHEMISTRY AT 298.15K
--------------------------

Temperature         ... 298.15 K
Pressure            ... 1.00 atm
Total Mass          ... 67.09 AMU

Throughout the following assumptions are being made:
  (1) The electronic state is orbitally nondegenerate
  (2) There are no thermally accessible electronically excited states
  (3) Hindered rotations indicated by low frequency modes are not
      treated as such but are treated as vibrations and this may
      cause some error
  (4) All equations used are the standard statistical mechanics
      equations for an ideal gas
  (5) All vibrations are strictly harmonic

freq.     528.66  E(vib)   ...       0.13 
freq.     649.40  E(vib)   ...       0.08 
freq.     663.36  E(vib)   ...       0.08 
freq.     733.37  E(vib)   ...       0.06 
freq.     763.48  E(vib)   ...       0.06 
freq.     880.77  E(vib)   ...       0.04 
freq.     900.69  E(vib)   ...       0.03 
freq.     925.08  E(vib)   ...       0.03 
freq.     927.37  E(vib)   ...       0.03 
freq.    1073.74  E(vib)   ...       0.02 
freq.    1108.47  E(vib)   ...       0.02 
freq.    1132.68  E(vib)   ...       0.01 
freq.    1203.57  E(vib)   ...       0.01 
freq.    1225.35  E(vib)   ...       0.01 
freq.    1356.78  E(vib)   ...       0.01 
freq.    1490.78  E(vib)   ...       0.00 
freq.    1535.84  E(vib)   ...       0.00 
freq.    1570.46  E(vib)   ...       0.00 
freq.    1645.83  E(vib)   ...       0.00 
freq.    3328.64  E(vib)   ...       0.00 
freq.    3338.35  E(vib)   ...       0.00 
freq.    3351.21  E(vib)   ...       0.00 
freq.    3357.59  E(vib)   ...       0.00 
freq.    3764.20  E(vib)   ...       0.00 

------------
INNER ENERGY
------------

The inner energy is: U= E(el) + E(ZPE) + E(vib) + E(rot) + E(trans)
    E(el)   - is the total energy from the electronic structure calculation
              = E(kin-el) + E(nuc-el) + E(el-el) + E(nuc-nuc)
    E(ZPE)  - the the zero temperature vibrational energy from the frequency calculation
    E(vib)  - the the finite temperature correction to E(ZPE) due to population
              of excited vibrational states
    E(rot)  - is the rotational thermal energy
    E(trans)- is the translational thermal energy

Summary of contributions to the inner energy U:
Electronic energy                ...   -209.70397085 Eh
Zero point energy                ...      0.08533031 Eh      53.55 kcal/mol
Thermal vibrational correction   ...      0.00099599 Eh       0.62 kcal/mol
Thermal rotational correction    ...      0.00141627 Eh       0.89 kcal/mol
Thermal translational correction ...      0.00141627 Eh       0.89 kcal/mol
-----------------------------------------------------------------------
Total thermal energy                   -209.61481201 Eh


Summary of corrections to the electronic energy:
(perhaps to be used in another calculation)
Total thermal correction                  0.00382853 Eh       2.40 kcal/mol
Non-thermal (ZPE) correction              0.08533031 Eh      53.55 kcal/mol
-----------------------------------------------------------------------
Total correction                          0.08915884 Eh      55.95 kcal/mol


--------
ENTHALPY
--------

The enthalpy is H = U + kB*T
                kB is Boltzmann's constant
Total free energy                 ...   -209.61481201 Eh 
Thermal Enthalpy correction       ...      0.00094421 Eh       0.59 kcal/mol
-----------------------------------------------------------------------
Total Enthalpy                    ...   -209.61386780 Eh


Vibrational entropy computed according to the QRRHO of S. Grimme
Chem.Eur.J. 2012 18 9955


-------
ENTROPY
-------

The entropy contributions are T*S = T*(S(el)+S(vib)+S(rot)+S(trans)
     S(el)   - electronic entropy
     S(vib)  - vibrational entropy
     S(rot)  - rotational entropy
     S(trans)- translational entropy
The entropies will be listed as mutliplied by the temperature to get
units of energy

Electronic entropy                ...      0.00000000 Eh      0.00 kcal/mol
Vibrational entropy               ...      0.00127716 Eh      0.80 kcal/mol
Rotational entropy                ...      0.01047422 Eh      6.57 kcal/mol
Translational entropy             ...      0.01830598 Eh     11.49 kcal/mol
-----------------------------------------------------------------------
Final entropy term                ...      0.03005736 Eh     18.86 kcal/mol


CAUTION: The rotational entropy is not quite correctly treated here
         because it includes a symmetry number that is not yet correctly
         implemented in ORCA!
For a nonlinear molecule the correct rotational entropy is:
    S(rot) = R*(ln(qrot/sn)+1.5)
    R    = 8.31441 J/mol/K = 1.987191683e-3 kcal/mol/K
    qrot = 44005.1596775
    sn is the rotational symmetry number. We have assumed 3 here
       if it is different for your molecule then you should correct
       the printed rotational entropy by manually evaluating the equation
       as given above

For convenience we print out the resulting values for sn=1 - 12:
 sn= 1  qrot/sn=   44005.1597 T*S(rot)=     7.22 kcal/mol T*S(tot)=    19.51 kcal/mol
 sn= 2  qrot/sn=   22002.5798 T*S(rot)=     6.81 kcal/mol T*S(tot)=    19.10 kcal/mol
 sn= 3  qrot/sn=   14668.3866 T*S(rot)=     6.57 kcal/mol T*S(tot)=    18.86 kcal/mol
 sn= 4  qrot/sn=   11001.2899 T*S(rot)=     6.40 kcal/mol T*S(tot)=    18.69 kcal/mol
 sn= 5  qrot/sn=    8801.0319 T*S(rot)=     6.27 kcal/mol T*S(tot)=    18.56 kcal/mol
 sn= 6  qrot/sn=    7334.1933 T*S(rot)=     6.16 kcal/mol T*S(tot)=    18.45 kcal/mol
 sn= 7  qrot/sn=    6286.4514 T*S(rot)=     6.07 kcal/mol T*S(tot)=    18.36 kcal/mol
 sn= 8  qrot/sn=    5500.6450 T*S(rot)=     5.99 kcal/mol T*S(tot)=    18.28 kcal/mol
 sn= 9  qrot/sn=    4889.4622 T*S(rot)=     5.92 kcal/mol T*S(tot)=    18.21 kcal/mol
 sn=10  qrot/sn=    4400.5160 T*S(rot)=     5.86 kcal/mol T*S(tot)=    18.15 kcal/mol
 sn=11  qrot/sn=    4000.4691 T*S(rot)=     5.80 kcal/mol T*S(tot)=    18.09 kcal/mol
 sn=12  qrot/sn=    3667.0966 T*S(rot)=     5.75 kcal/mol T*S(tot)=    18.04 kcal/mol


-------------------
GIBBS FREE ENTHALPY
-------------------

The Gibbs free enthalpy is G = H - T*S

Total enthalpy                    ...   -209.61386780 Eh 
Total entropy correction          ...     -0.03005736 Eh    -18.86 kcal/mol
-----------------------------------------------------------------------
Final Gibbs free enthalpy         ...   -209.64392516 Eh

For completeness - the Gibbs free enthalpy minus the electronic energy
G-E(el)                           ...      0.06004569 Eh     37.68 kcal/mol


Timings for individual modules:

Sum of individual times         ...      134.941 sec (=   2.249 min)
GTO integral calculation        ...        8.829 sec (=   0.147 min)   6.5 %
SCF iterations                  ...       31.884 sec (=   0.531 min)  23.6 %
SCF Gradient evaluation         ...       17.344 sec (=   0.289 min)  12.9 %
Geometry relaxation             ...        5.873 sec (=   0.098 min)   4.4 %
Analytical frequency calculation...       71.012 sec (=   1.184 min)  52.6 %
                             ****ORCA TERMINATED NORMALLY****
TOTAL RUN TIME: 0 days 0 hours 2 minutes 21 seconds 263 msec
