
                                 *****************
                                 * O   R   C   A *
                                 *****************

           --- An Ab Initio, DFT and Semiempirical electronic structure package ---

                  #######################################################
                  #                        -***-                        #
                  #  Department of molecular theory and spectroscopy    #
                  #              Directorship: Frank Neese              #
                  # Max Planck Institute for Chemical Energy Conversion #
                  #                  D-45470 Muelheim/Ruhr              #
                  #                       Germany                       #
                  #                                                     #
                  #                  All rights reserved                #
                  #                        -***-                        #
                  #######################################################


                         Program Version 4.0.1.2 - RELEASE -


 With contributions from (in alphabetic order):
   Daniel Aravena         : Magnetic Properties
   Michael Atanasov       : Ab Initio Ligand Field Theory
   Ute Becker             : Parallelization
   Martin Brehm           : Molecular dynamics
   Dmytro Bykov           : SCF Hessian
   Vijay G. Chilkuri      : MRCI spin determinant printing
   Dipayan Datta          : RHF DLPNO-CCSD density
   Achintya Kumar Dutta   : EOM-CC, STEOM-CC
   Dmitry Ganyushin       : Spin-Orbit,Spin-Spin,Magnetic field MRCI
   Yang Guo               : DLPNO-NEVPT2, CIM, IAO-localization
   Andreas Hansen         : Spin unrestricted coupled pair/coupled cluster methods
   Lee Huntington         : MR-EOM, pCC
   Robert Izsak           : Overlap fitted RIJCOSX, COSX-SCS-MP3, EOM
   Christian Kollmar      : KDIIS, OOCD, Brueckner-CCSD(T), CCSD density
   Simone Kossmann        : Meta GGA functionals, TD-DFT gradient, OOMP2, MP2 Hessian
   Martin Krupicka        : AUTO-CI
   Dagmar Lenk            : GEPOL surface
   Dimitrios Liakos       : Extrapolation schemes; parallel MDCI
   Dimitrios Manganas     : ROCIS; embedding schemes
   Dimitrios Pantazis     : SARC Basis sets
   Taras Petrenko         : DFT Hessian,TD-DFT gradient, ASA, ECA, R-Raman, ABS, FL, XAS/XES, NRVS
   Peter Pinski           : DLPNO-MP2
   Christoph Reimann      : Effective Core Potentials
   Marius Retegan         : Local ZFS, SOC
   Christoph Riplinger    : Optimizer, TS searches, QM/MM, DLPNO-CCSD(T), (RO)-DLPNO pert. Triples
   Tobias Risthaus        : Range-separated hybrids, TD-DFT gradient, RPA, STAB
   Michael Roemelt        : Restricted open shell CIS
   Masaaki Saitow         : Open-shell DLPNO
   Barbara Sandhoefer     : DKH picture change effects
   Kantharuban Sivalingam : CASSCF convergence, NEVPT2, FIC-MRCI
   Georgi Stoychev        : AutoAux
   Boris Wezisla          : Elementary symmetry handling
   Frank Wennmohs         : Technical directorship


 We gratefully acknowledge several colleagues who have allowed us to
 interface, adapt or use parts of their codes:
   Stefan Grimme, W. Hujo, H. Kruse,             : VdW corrections, initial TS optimization,
                  C. Bannwarth                     DFT functionals, gCP, sTDA/sTD-DF
   Ed Valeev                                     : LibInt (2-el integral package), F12 methods
   Garnet Chan, S. Sharma, J. Yang, R. Olivares  : DMRG
   Ulf Ekstrom                                   : XCFun DFT Library
   Mihaly Kallay                                 : mrcc  (arbitrary order and MRCC methods)
   Andreas Klamt, Michael Diedenhofen            : otool_cosmo (COSMO solvation model)
   Jiri Pittner, Ondrej Demel                    : Mk-CCSD
   Frank Weinhold                                : gennbo (NPA and NBO analysis)
   Christopher J. Cramer and Donald G. Truhlar   : smd solvation model


 Your calculation uses the libint2 library for the computation of 2-el integrals
 For citations please refer to: http://libint.valeyev.net

 This ORCA versions uses:
   CBLAS   interface :  Fast vector & matrix operations
   LAPACKE interface :  Fast linear algebra routines
   SCALAPACK package :  Parallel linear algebra routines


Your calculation utilizes the geometrical counterpoise correction gCP
Please cite in your paper:
H.Kruse, S. Grimme J.Chem.Phys., 136, (2012), 154101 
   

Your calculation utilizes the atom-pairwise dispersion correction
with the Becke-Johnson damping scheme (D3BJ)
Cite in your paper:
S.Grimme, S.Ehrlich, L.Goerigk, J Comput Chem, (2011), 32, 1456–1465 
S.Grimme, J.Antony, S.Ehrlich and H.Krieg, J.Chem.Phys., 132, (2010), 154104 
   

Your calculation employs the composite approach PBEh-3c.
Please cite in your paper:
S. Grimme, J. G. Brandenburg, C. Bannwarth, A. Hansen J.Chem.Phys., 143, (2015), 054107 
   

Your calculation utilizes the SMD solvation module
Please cite in your paper:
A.V. Marenich, C.J. Cramer, D.G. Truhlar J. Phys. Chem. B, 113, (2009), 6378 

Your calculation utilizes the basis: def2-mSVP

Your calculation utilizes the auxiliary basis: def2/J
   F. Weigend, Phys. Chem. Chem. Phys. 8, 1057 (2006).

================================================================================
                                        WARNINGS
                       Please study these warnings very carefully!
================================================================================

Warning: TCutStore was < 0. Adjusted to Thresh (uncritical)

WARNING: Split-RI-J cannot be used together with RIJONX
  ===> : Split-RI-J will be disabled

WARNING: The environment variable RSH_COMMAND is not set!
  ===> : All Displacements for the Numerical Hessian calculation
         will be started on localhost

WARNING: Evaluation of Numerical Hessian with CPCM may lead to unreliable numbers

WARNING: Geometry Optimization
  ===> : Switching off AutoStart
         For restart on a previous wavefunction, please use MOREAD

INFO   : the flag for use of LIBINT has been found!

================================================================================
                                       INPUT FILE
================================================================================
NAME = pyrrole@water.inp
|  1> # pyrrole.xyz
|  2> ! PBEh3c Opt NumFreq CPCM
|  3> %cpcm
|  4>  smd true
|  5>  solvent "WATER"
|  6> end
|  7> 
|  8> * xyz 0 1
|  9> C         -1.17059        0.01120        0.00014
| 10> C         -0.37390        1.13442        0.00040
| 11> C          0.97221        0.69679        0.00017
| 12> C          0.95607       -0.68020       -0.00023
| 13> N         -0.35233       -1.08830       -0.00024
| 14> H         -2.24657       -0.09976        0.00020
| 15> H         -0.72409        2.15850        0.00072
| 16> H          1.85768        1.31915        0.00027
| 17> H          1.76108       -1.40268       -0.00050
| 18> H         -0.66520       -2.05064       -0.00049
| 19> *
| 20> %pal
| 21>  nprocs 4
| 22> end
| 23> 
| 24>                          ****END OF INPUT****
================================================================================

                       *****************************
                       * Geometry Optimization Run *
                       *****************************

Geometry optimization settings:
Update method            Update   .... BFGS
Choice of coordinates    CoordSys .... Redundant Internals
Initial Hessian          InHess   .... Almoef's Model

Convergence Tolerances:
Energy Change            TolE     ....  5.0000e-06 Eh
Max. Gradient            TolMAXG  ....  3.0000e-04 Eh/bohr
RMS Gradient             TolRMSG  ....  1.0000e-04 Eh/bohr
Max. Displacement        TolMAXD  ....  4.0000e-03 bohr
RMS Displacement         TolRMSD  ....  2.0000e-03 bohr

------------------------------------------------------------------------------
                        ORCA OPTIMIZATION COORDINATE SETUP
------------------------------------------------------------------------------

The optimization will be done in new redundant internal coordinates
Making redundant internal coordinates   ...  (new redundants) done
Evaluating the initial hessian          ...  (Almloef) done
Evaluating the coordinates              ...  done
Calculating the B-matrix                .... done
Calculating the G-matrix                .... done
Diagonalizing the G-matrix              .... done
The first mode is                       ....   21
The number of degrees of freedom        ....   24

    -----------------------------------------------------------------
                    Redundant Internal Coordinates


    -----------------------------------------------------------------
         Definition                    Initial Value    Approx d2E/dq
    -----------------------------------------------------------------
      1. B(C   1,C   0)                  1.3771         0.655176   
      2. B(C   2,C   1)                  1.4155         0.569005   
      3. B(C   3,C   2)                  1.3771         0.655155   
      4. B(N   4,C   3)                  1.3706         0.601005   
      5. B(N   4,C   0)                  1.3706         0.601010   
      6. B(H   5,C   0)                  1.0817         0.371268   
      7. B(H   6,C   1)                  1.0823         0.370432   
      8. B(H   7,C   2)                  1.0823         0.370422   
      9. B(H   8,C   3)                  1.0817         0.371284   
     10. B(H   9,N   4)                  1.0119         0.429664   
     11. A(C   1,C   0,H   5)          131.2355         0.358080   
     12. A(N   4,C   0,H   5)          120.7692         0.350704   
     13. A(C   1,C   0,N   4)          107.9952         0.433097   
     14. A(C   0,C   1,H   6)          125.7738         0.357942   
     15. A(C   0,C   1,C   2)          107.3380         0.431681   
     16. A(C   2,C   1,H   6)          126.8881         0.349494   
     17. A(C   3,C   2,H   7)          125.7733         0.357939   
     18. A(C   1,C   2,H   7)          126.8885         0.349492   
     19. A(C   1,C   2,C   3)          107.3382         0.431678   
     20. A(N   4,C   3,H   8)          120.7696         0.350706   
     21. A(C   2,C   3,H   8)          131.2358         0.358080   
     22. A(C   2,C   3,N   4)          107.9946         0.433094   
     23. A(C   3,N   4,H   9)          125.3332         0.356349   
     24. A(C   0,N   4,H   9)          125.3329         0.356349   
     25. A(C   0,N   4,C   3)          109.3339         0.423664   
     26. D(H   6,C   1,C   0,H   5)     -0.0006         0.029921   
     27. D(C   2,C   1,C   0,N   4)     -0.0001         0.029921   
     28. D(C   2,C   1,C   0,H   5)    179.9994         0.029921   
     29. D(H   6,C   1,C   0,N   4)    179.9999         0.029921   
     30. D(C   3,C   2,C   1,H   6)   -179.9997         0.022206   
     31. D(H   7,C   2,C   1,C   0)    179.9994         0.022206   
     32. D(C   3,C   2,C   1,C   0)      0.0003         0.022206   
     33. D(H   7,C   2,C   1,H   6)     -0.0006         0.022206   
     34. D(H   8,C   3,C   2,H   7)      0.0010         0.029919   
     35. D(H   8,C   3,C   2,C   1)   -179.9999         0.029919   
     36. D(N   4,C   3,C   2,H   7)   -179.9995         0.029919   
     37. D(N   4,C   3,C   2,C   1)     -0.0004         0.029919   
     38. D(H   9,N   4,C   0,C   1)    179.9999         0.029113   
     39. D(C   3,N   4,C   0,H   5)   -179.9997         0.029113   
     40. D(C   3,N   4,C   0,C   1)     -0.0002         0.029113   
     41. D(H   9,N   4,C   3,H   8)     -0.0002         0.029112   
     42. D(H   9,N   4,C   3,C   2)   -179.9997         0.029112   
     43. D(C   0,N   4,C   3,H   8)    179.9999         0.029112   
     44. D(C   0,N   4,C   3,C   2)      0.0004         0.029112   
     45. D(H   9,N   4,C   0,H   5)      0.0003         0.029113   
    -----------------------------------------------------------------

Number of atoms                         .... 10
Number of degrees of freedom            .... 45

         *************************************************************
         *                GEOMETRY OPTIMIZATION CYCLE   1            *
         *************************************************************
---------------------------------
CARTESIAN COORDINATES (ANGSTROEM)
---------------------------------
  C     -1.170590    0.011200    0.000140
  C     -0.373900    1.134420    0.000400
  C      0.972210    0.696790    0.000170
  C      0.956070   -0.680200   -0.000230
  N     -0.352330   -1.088300   -0.000240
  H     -2.246570   -0.099760    0.000200
  H     -0.724090    2.158500    0.000720
  H      1.857680    1.319150    0.000270
  H      1.761080   -1.402680   -0.000500
  H     -0.665200   -2.050640   -0.000490

----------------------------
CARTESIAN COORDINATES (A.U.)
----------------------------
  NO LB      ZA    FRAG     MASS         X           Y           Z
   0 C     6.0000    0    12.011   -2.212095    0.021165    0.000265
   1 C     6.0000    0    12.011   -0.706569    2.143743    0.000756
   2 C     6.0000    0    12.011    1.837211    1.316742    0.000321
   3 C     6.0000    0    12.011    1.806710   -1.285392   -0.000435
   4 N     7.0000    0    14.007   -0.665807   -2.056589   -0.000454
   5 H     1.0000    0     1.008   -4.245402   -0.188519    0.000378
   6 H     1.0000    0     1.008   -1.368332    4.078974    0.001361
   7 H     1.0000    0     1.008    3.510506    2.492832    0.000510
   8 H     1.0000    0     1.008    3.327959   -2.650681   -0.000945
   9 H     1.0000    0     1.008   -1.257046   -3.875148   -0.000926

--------------------------------
INTERNAL COORDINATES (ANGSTROEM)
--------------------------------
 C      0   0   0     0.000000000000     0.00000000     0.00000000
 C      1   0   0     1.377075957273     0.00000000     0.00000000
 C      2   1   0     1.415461833431   107.33802324     0.00000000
 C      3   2   1     1.377084645075   107.33817099     0.00000000
 N      1   2   3     1.370565511751   107.99523302     0.00000000
 H      1   2   3     1.081686223264   131.23552981   179.99942213
 H      2   1   3     1.082299859050   125.77384519   179.99995485
 H      3   2   1     1.082307304096   126.88849638   179.99936696
 H      4   3   2     1.081673945050   131.23578304   180.00012711
 H      5   1   2     1.011921921395   125.33291529   179.99987570

---------------------------
INTERNAL COORDINATES (A.U.)
---------------------------
 C      0   0   0     0.000000000000     0.00000000     0.00000000
 C      1   0   0     2.602296424854     0.00000000     0.00000000
 C      2   1   0     2.674835218203   107.33802324     0.00000000
 C      3   2   1     2.602312842419   107.33817099     0.00000000
 N      1   2   3     2.589993465806   107.99523302     0.00000000
 H      1   2   3     2.044090724805   131.23552981   179.99942213
 H      2   1   3     2.045250328386   125.77384519   179.99995485
 H      3   2   1     2.045264397484   126.88849638   179.99936696
 H      4   3   2     2.044067522343   131.23578304   180.00012711
 H      5   1   2     1.912255300348   125.33291529   179.99987570

---------------------
BASIS SET INFORMATION
---------------------
There are 3 groups of distinct atoms

 Group   1 Type C   : 8s4p1d contracted to 4s2p1d pattern {5111/31/1}
 Group   2 Type N   : 8s4p1d contracted to 4s2p1d pattern {5111/31/1}
 Group   3 Type H   : 4s contracted to 2s pattern {31}

Atom   0C    basis set group =>   1
Atom   1C    basis set group =>   1
Atom   2C    basis set group =>   1
Atom   3C    basis set group =>   1
Atom   4N    basis set group =>   2
Atom   5H    basis set group =>   3
Atom   6H    basis set group =>   3
Atom   7H    basis set group =>   3
Atom   8H    basis set group =>   3
Atom   9H    basis set group =>   3
-------------------------------
AUXILIARY BASIS SET INFORMATION
-------------------------------
There are 3 groups of distinct atoms

 Group   1 Type C   : 12s5p4d2f1g contracted to 6s4p3d1f1g pattern {711111/2111/211/2/1}
 Group   2 Type N   : 12s5p4d2f1g contracted to 6s4p3d1f1g pattern {711111/2111/211/2/1}
 Group   3 Type H   : 5s2p1d contracted to 3s1p1d pattern {311/2/1}

Atom   0C    basis set group =>   1
Atom   1C    basis set group =>   1
Atom   2C    basis set group =>   1
Atom   3C    basis set group =>   1
Atom   4N    basis set group =>   2
Atom   5H    basis set group =>   3
Atom   6H    basis set group =>   3
Atom   7H    basis set group =>   3
Atom   8H    basis set group =>   3
Atom   9H    basis set group =>   3


           ************************************************************
           *        Program running with 4 parallel MPI-processes     *
           *              working on a common directory               *
           ************************************************************
------------------------------------------------------------------------------
                           ORCA GTO INTEGRAL CALCULATION
                           -- RI-GTO INTEGRALS CHOSEN --
------------------------------------------------------------------------------

                         BASIS SET STATISTICS AND STARTUP INFO

Gaussian basis set:
 # of primitive gaussian shells          ...   85
 # of primitive gaussian functions       ...  145
 # of contracted shells                  ...   45
 # of contracted basis functions         ...   85
 Highest angular momentum                ...    2
 Maximum contraction depth               ...    5
Auxiliary gaussian basis set:
 # of primitive gaussian shells          ...  160
 # of primitive gaussian functions       ...  430
 # of contracted shells                  ...  100
 # of contracted aux-basis functions     ...  300
 Highest angular momentum                ...    4
 Maximum contraction depth               ...    7
Ratio of auxiliary to basis functions    ...  3.53
Integral package used                  ... LIBINT
 One Electron integrals                  ... done
 Ordering auxiliary basis shells         ... done
 Integral threshhold             Thresh  ...  2.500e-11
 Primitive cut-off               TCut    ...  2.500e-12
 Pre-screening matrix                    ... done
 Shell pair data                         ... 
 Ordering of the shell pairs             ... done (   0.000 sec) 1010 of 1035 pairs
 Determination of significant pairs      ... done (   0.000 sec)
 Creation of shell pair data             ... done (   0.000 sec)
 Storage of shell pair data              ... done (   0.000 sec)
 Shell pair data done in (   0.001 sec)
 Computing two index integrals           ... done
 Cholesky decomposition of the V-matrix  ... done


Timings:
 Total evaluation time                   ...   0.198 sec (  0.003 min)
 One electron matrix time                ...   0.012 sec (  0.000 min) =  5.9%
 Schwartz matrix evaluation time         ...   0.156 sec (  0.003 min) = 79.0%
 Two index repulsion integral time       ...   0.005 sec (  0.000 min) =  2.4%
 Cholesky decomposition of V             ...   0.003 sec (  0.000 min) =  1.3%
 Three index repulsion integral time     ...   0.000 sec (  0.000 min) =  0.0%



           ************************************************************
           *        Program running with 4 parallel MPI-processes     *
           *              working on a common directory               *
           ************************************************************
-------------------------------------------------------------------------------
                                 ORCA SCF
-------------------------------------------------------------------------------

------------
SCF SETTINGS
------------
Hamiltonian:
 Density Functional     Method          .... DFT(GTOs)
 Exchange Functional    Exchange        .... PBE
   PBE kappa parameter   XKappa         ....  1.024500
   PBE mue parameter    XMuePBE         ....  0.123457
 Correlation Functional Correlation     .... PBE
   PBE beta parameter  CBetaPBE         ....  0.030000
 LDA part of GGA corr.  LDAOpt          .... PW91-LDA
 Gradients option       PostSCFGGA      .... off
 Hybrid DFT is turned on
   Fraction HF Exchange ScalHFX         ....  0.420000
   Scaling of DF-GGA-X  ScalDFX         ....  0.580000
   Scaling of DF-GGA-C  ScalDFC         ....  1.000000
   Scaling of DF-LDA-C  ScalLDAC        ....  1.000000
   Perturbative correction              ....  0.000000
 RI-approximation to the Coulomb term is turned on
   Number of auxiliary basis functions  .... 300
   RIJ-ON(X) (HFX calculated with O(N)) .... on


General Settings:
 Integral files         IntName         .... pyrrole@water
 Hartree-Fock type      HFTyp           .... RHF
 Total Charge           Charge          ....    0
 Multiplicity           Mult            ....    1
 Number of Electrons    NEL             ....   36
 Basis Dimension        Dim             ....   85
 Nuclear Repulsion      ENuc            ....    161.0993755373 Eh

Convergence Acceleration:
 DIIS                   CNVDIIS         .... on
   Start iteration      DIISMaxIt       ....    12
   Startup error        DIISStart       ....  0.200000
   # of expansion vecs  DIISMaxEq       ....     5
   Bias factor          DIISBfac        ....   1.050
   Max. coefficient     DIISMaxC        ....  10.000
 Newton-Raphson         CNVNR           .... off
 SOSCF                  CNVSOSCF        .... on
   Start iteration      SOSCFMaxIt      ....   150
   Startup grad/error   SOSCFStart      ....  0.003300
 Level Shifting         CNVShift        .... on
   Level shift para.    LevelShift      ....    0.2500
   Turn off err/grad.   ShiftErr        ....    0.0010
 Zerner damping         CNVZerner       .... off
 Static damping         CNVDamp         .... on
   Fraction old density DampFac         ....    0.7000
   Max. Damping (<1)    DampMax         ....    0.9800
   Min. Damping (>=0)   DampMin         ....    0.0000
   Turn off err/grad.   DampErr         ....    0.1000
 Fernandez-Rico         CNVRico         .... off

SCF Procedure:
 Maximum # iterations   MaxIter         ....   125
 SCF integral mode      SCFMode         .... Direct
   Integral package                     .... LIBINT
 Reset frequeny         DirectResetFreq ....    20
 Integral Threshold     Thresh          ....  2.500e-11 Eh
 Primitive CutOff       TCut            ....  2.500e-12 Eh

Convergence Tolerance:
 Convergence Check Mode ConvCheckMode   .... Total+1el-Energy
 Convergence forced     ConvForced      .... 0
 Energy Change          TolE            ....  1.000e-08 Eh
 1-El. energy change                    ....  1.000e-05 Eh
 Orbital Gradient       TolG            ....  1.000e-05
 Orbital Rotation angle TolX            ....  1.000e-05
 DIIS Error             TolErr          ....  5.000e-07


Diagonalization of the overlap matrix:
Smallest eigenvalue                        ... 1.191e-03
Time for diagonalization                   ...    0.002 sec
Threshold for overlap eigenvalues          ... 1.000e-08
Number of eigenvalues below threshold      ... 0
Time for construction of square roots      ...    0.001 sec
Total time needed                          ...    0.003 sec

--------------------------------
INITIAL GUESS: MINIMAL BASIS EHT
--------------------------------
The minimal basis has 30 functions
EHT matrix was diagonalized
Basis set overlap was calculated now projecting the orbitals
Using GuessMode=FMatrix for the initial guess
C*T matrix was formed
Effective Fockian was calculated
Effective Fockian was diagonalized
Initial density was built
                      ------------------
                      INITIAL GUESS DONE
                      ------------------
-------------------
DFT GRID GENERATION
-------------------

General Integration Accuracy     IntAcc      ...  4.340
Radial Grid Type                 RadialGrid  ... Gauss-Chebyshev
Angular Grid (max. acc.)         AngularGrid ... Lebedev-194
Angular grid pruning method      GridPruning ... 3 (G Style)
Weight generation scheme         WeightScheme... Becke
Basis function cutoff            BFCut       ...    1.0000e-11
Integration weight cutoff        WCut        ...    1.0000e-14
Grids for H and He will be reduced by one unit

# of grid points (after initial pruning)     ...  24080 (   0.0 sec)
# of grid points (after weights+screening)   ...  22681 (   0.0 sec)
nearest neighbour list constructed           ...    0.0 sec
Grid point re-assignment to atoms done       ...    0.0 sec
Grid point division into batches done        ...    0.1 sec
Reduced shell lists constructed in    0.1 sec

Total number of grid points                  ...    22681
Total number of batches                      ...      358
Average number of points per batch           ...       63
Average number of grid points per atom       ...     2268
Average number of shells per batch           ...    38.12 (84.71%)
Average number of basis functions per batch  ...    77.64 (91.34%)
Average number of large shells per batch     ...    34.23 (89.80%)
Average number of large basis fcns per batch ...    72.96 (93.97%)
Maximum spatial batch extension              ...   3.85,  3.97, 18.58 au
Average spatial batch extension              ...   0.38,  0.37,  0.60 au

Time for grid setup =    0.120 sec


------------------------------------------------------------------------------
                           CPCM SOLVATION MODEL                               
------------------------------------------------------------------------------
CPCM parameters:
  Epsilon                                         ...      78.3550
  Refrac                                          ...       1.3300
  Rsolv                                           ...       1.3000
  Surface type                                    ...    GEPOL SES
  Epsilon function type                           ...         CPCM
Solvent:                                     ... WATER
SMD-CDS solvent descriptors:
  Soln                                       ...    1.3328
  Soln25                                     ...    1.3323
  Sola                                       ...    0.0000
  Solb                                       ...    0.0000
  Solg                                       ...    0.0000
  Solc                                       ...    0.0000
  Solh                                       ...    0.0000
Radii:
 Radius for C  used is    3.4960 Bohr (=   1.8500 Ang.)
 Radius for N  used is    3.5716 Bohr (=   1.8900 Ang.)
 Radius for H  used is    2.2677 Bohr (=   1.2000 Ang.)
Calculating surface                               ...        done! (  0.0s)
GEPOL surface points                              ...          310
GEPOL Volume                                      ...     538.5487
GEPOL Surface-area                                ...     350.8442
Calculating surface distance matrix               ...        done! (  0.0s)
Performing Cholesky decomposition & store         ...        done! (  0.0s)
Overall time for CPCM initialization              ...                 0.0s
--------------
SCF ITERATIONS
--------------
ITER       Energy         Delta-E        Max-DP      RMS-DP      [F,P]     Damp
               ***  Starting incremental Fock matrix formation  ***
  0   -209.2214588220   0.000000000000 0.09581636  0.00617815  0.4145692 0.7000
  1   -209.3671304826  -0.145671660569 0.07092161  0.00446354  0.2905007 0.7000
  2   -209.4710336754  -0.103903192837 0.05066574  0.00322466  0.2025118 0.7000
                               ***Turning on DIIS***
  3   -209.5453365047  -0.074302829322 0.03582935  0.00234004  0.1414801 0.7000
  4   -209.5984785232  -0.053142018503 0.08668412  0.00595687  0.0990485 0.0000
  5   -209.7274731020  -0.128994578810 0.00981860  0.00039482  0.0081273 0.0000
                      *** Initiating the SOSCF procedure ***
                           *** Shutting down DIIS ***
                      *** Re-Reading the Fockian *** 
                      *** Removing any level shift *** 
ITER      Energy       Delta-E        Grad      Rot      Max-DP    RMS-DP
  6   -209.72783826  -0.0003651572  0.002513  0.002513  0.003119  0.000169
               *** Restarting incremental Fock matrix formation ***
  7   -209.72789453  -0.0000562716  0.000858  0.002091  0.003549  0.000109
  8   -209.72790360  -0.0000090655  0.000605  0.000457  0.001138  0.000048
  9   -209.72790908  -0.0000054804  0.000077  0.000145  0.000239  0.000010
 10   -209.72790913  -0.0000000530  0.000080  0.000118  0.000108  0.000005
 11   -209.72790920  -0.0000000682  0.000009  0.000028  0.000023  0.000001
                  ***Gradient check signals convergence***
              ***Rediagonalizing the Fockian in SOSCF/NRSCF***

               *****************************************************
               *                     SUCCESS                       *
               *           SCF CONVERGED AFTER  12 CYCLES          *
               *****************************************************


SMD CDS free energy correction energy :                 3.22600     Kcal/mol
Total Energy after SMD CDS correction =              -209.722768242 Eh

----------------
TOTAL SCF ENERGY
----------------

Total Energy       :         -209.72276824 Eh           -5706.84665 eV

Components:
Nuclear Repulsion  :          161.09937554 Eh            4383.73687 eV
Electronic Energy  :         -370.82214378 Eh          -10090.58353 eV
One Electron Energy:         -601.48629155 Eh          -16367.27409 eV
Two Electron Energy:          230.66414777 Eh            6276.69056 eV
CPCM Dielectric    :           -0.01641256 Eh              -0.44661 eV
SMD CDS (Gcds)     :            0.00514096 Eh               0.13989 eV

Virial components:
Potential Energy   :         -417.73638124 Eh          -11367.18483 eV
Kinetic Energy     :          208.01361300 Eh            5660.33818 eV
Virial Ratio       :            2.00821655


DFT components:
N(Alpha)           :       17.999943761004 electrons
N(Beta)            :       17.999943761004 electrons
N(Total)           :       35.999887522007 electrons
E(X)               :      -16.241583389540 Eh       
E(C)               :       -1.562964207242 Eh       
E(XC)              :      -17.804547596781 Eh       
CPCM Solvation Model Properties:
Surface-charge          :           -0.02616560
Charge-correction       :            0.00006547 Eh               0.00178 eV
Free-energy (cav+disp)  :            0.00316415 Eh               0.08610 eV
Corrected G(solv)       :         -209.71953863 Eh           -5706.75877 eV

---------------
SCF CONVERGENCE
---------------

  Last Energy change         ...   -1.8334e-09  Tolerance :   1.0000e-08
  Last MAX-Density change    ...    4.6127e-06  Tolerance :   1.0000e-07
  Last RMS-Density change    ...    2.8394e-07  Tolerance :   5.0000e-09
  Last Orbital Gradient      ...    2.0299e-06  Tolerance :   1.0000e-05
  Last Orbital Rotation      ...    3.9260e-06  Tolerance :   1.0000e-05

             **** THE GBW FILE WAS UPDATED (pyrrole@water.gbw) ****
             **** DENSITY FILE WAS UPDATED (pyrrole@water.scfp.tmp) ****
             **** ENERGY FILE WAS UPDATED (pyrrole@water.en.tmp) ****
----------------
ORBITAL ENERGIES
----------------

  NO   OCC          E(Eh)            E(eV) 
   0   2.0000     -14.679478      -399.4489 
   1   2.0000     -10.460046      -284.6323 
   2   2.0000     -10.459997      -284.6310 
   3   2.0000     -10.425338      -283.6879 
   4   2.0000     -10.424863      -283.6750 
   5   2.0000      -1.077119       -29.3099 
   6   2.0000      -0.861032       -23.4299 
   7   2.0000      -0.803031       -21.8516 
   8   2.0000      -0.654876       -17.8201 
   9   2.0000      -0.632823       -17.2200 
  10   2.0000      -0.606091       -16.4926 
  11   2.0000      -0.485487       -13.2108 
  12   2.0000      -0.471858       -12.8399 
  13   2.0000      -0.467899       -12.7322 
  14   2.0000      -0.442500       -12.0410 
  15   2.0000      -0.428626       -11.6635 
  16   2.0000      -0.291929        -7.9438 
  17   2.0000      -0.254853        -6.9349 
  18   0.0000       0.066675         1.8143 
  19   0.0000       0.108872         2.9625 
  20   0.0000       0.152392         4.1468 
  21   0.0000       0.208442         5.6720 
  22   0.0000       0.232255         6.3200 
  23   0.0000       0.234767         6.3883 
  24   0.0000       0.246299         6.7021 
  25   0.0000       0.264518         7.1979 
  26   0.0000       0.268659         7.3106 
  27   0.0000       0.352413         9.5897 
  28   0.0000       0.364782         9.9262 
  29   0.0000       0.496406        13.5079 
  30   0.0000       0.530777        14.4432 
  31   0.0000       0.573732        15.6120 
  32   0.0000       0.579326        15.7643 
  33   0.0000       0.607601        16.5337 
  34   0.0000       0.614547        16.7227 
  35   0.0000       0.627058        17.0631 
  36   0.0000       0.650213        17.6932 
  37   0.0000       0.666634        18.1400 
  38   0.0000       0.677981        18.4488 
  39   0.0000       0.699641        19.0382 
  40   0.0000       0.815869        22.2009 
  41   0.0000       0.874192        23.7880 
  42   0.0000       0.904988        24.6260 
  43   0.0000       0.905540        24.6410 
  44   0.0000       0.959989        26.1226 
  45   0.0000       0.980762        26.6879 
  46   0.0000       1.009723        27.4760 
  47   0.0000       1.010166        27.4880 
  48   0.0000       1.050795        28.5936 
  49   0.0000       1.127072        30.6692 
  50   0.0000       1.151006        31.3205 
  51   0.0000       1.252090        34.0711 
  52   0.0000       1.347639        36.6711 
  53   0.0000       1.387661        37.7602 
  54   0.0000       1.391346        37.8604 
  55   0.0000       1.417279        38.5661 
  56   0.0000       1.442468        39.2515 
  57   0.0000       1.576510        42.8990 
  58   0.0000       1.605495        43.6877 
  59   0.0000       1.608220        43.7619 
  60   0.0000       1.864573        50.7376 
  61   0.0000       1.938718        52.7552 
  62   0.0000       2.050369        55.7934 
  63   0.0000       2.080454        56.6120 
  64   0.0000       2.127536        57.8932 
  65   0.0000       2.210959        60.1633 
  66   0.0000       2.276889        61.9573 
  67   0.0000       2.303399        62.6787 
  68   0.0000       2.334838        63.5342 
  69   0.0000       2.340432        63.6864 
  70   0.0000       2.384611        64.8886 
  71   0.0000       2.400688        65.3260 
  72   0.0000       2.632476        71.6333 
  73   0.0000       2.633447        71.6597 
  74   0.0000       2.673668        72.7542 
  75   0.0000       2.731341        74.3236 
  76   0.0000       2.772468        75.4427 
  77   0.0000       3.022317        82.2414 
  78   0.0000       3.114186        84.7413 
  79   0.0000       3.117642        84.8353 
  80   0.0000      13.392650       364.4325 
  81   0.0000      13.710327       373.0770 
  82   0.0000      13.998223       380.9110 
  83   0.0000      14.312284       389.4570 
  84   0.0000      19.261277       524.1260 

                    ********************************
                    * MULLIKEN POPULATION ANALYSIS *
                    ********************************

-----------------------
MULLIKEN ATOMIC CHARGES
-----------------------
   0 C :   -0.078514
   1 C :   -0.368825
   2 C :   -0.369120
   3 C :   -0.078674
   4 N :   -0.570568
   5 H :    0.274850
   6 H :    0.249236
   7 H :    0.249422
   8 H :    0.275344
   9 H :    0.416850
Sum of atomic charges:   -0.0000000

--------------------------------
MULLIKEN REDUCED ORBITAL CHARGES
--------------------------------
  0 C s       :     3.168646  s :     3.168646
      pz      :     1.081146  p :     2.853821
      px      :     0.958727
      py      :     0.813948
      dz2     :     0.004788  d :     0.056047
      dxz     :     0.004063
      dyz     :     0.011671
      dx2y2   :     0.016228
      dxy     :     0.019296
  1 C s       :     3.256340  s :     3.256340
      pz      :     1.111046  p :     3.072724
      px      :     0.904295
      py      :     1.057383
      dz2     :     0.003868  d :     0.039761
      dxz     :     0.007225
      dyz     :     0.003864
      dx2y2   :     0.011532
      dxy     :     0.013272
  2 C s       :     3.255538  s :     3.255538
      pz      :     1.111038  p :     3.073826
      px      :     1.015530
      py      :     0.947258
      dz2     :     0.003866  d :     0.039756
      dxz     :     0.004676
      dyz     :     0.006412
      dx2y2   :     0.012900
      dxy     :     0.011901
  3 C s       :     3.167721  s :     3.167721
      pz      :     1.080941  p :     2.854907
      px      :     0.809911
      py      :     0.964055
      dz2     :     0.004786  d :     0.056046
      dxz     :     0.007953
      dyz     :     0.007782
      dx2y2   :     0.016601
      dxy     :     0.018924
  4 N s       :     3.554027  s :     3.554027
      pz      :     1.548444  p :     3.973388
      px      :     1.167512
      py      :     1.257433
      dz2     :     0.004003  d :     0.043153
      dxz     :     0.010190
      dyz     :     0.003547
      dx2y2   :     0.013566
      dxy     :     0.011847
  5 H s       :     0.725150  s :     0.725150
  6 H s       :     0.750764  s :     0.750764
  7 H s       :     0.750578  s :     0.750578
  8 H s       :     0.724656  s :     0.724656
  9 H s       :     0.583150  s :     0.583150


                     *******************************
                     * LOEWDIN POPULATION ANALYSIS *
                     *******************************

----------------------
LOEWDIN ATOMIC CHARGES
----------------------
   0 C :   -0.136968
   1 C :   -0.239124
   2 C :   -0.239042
   3 C :   -0.136826
   4 N :   -0.130703
   5 H :    0.150268
   6 H :    0.145485
   7 H :    0.145405
   8 H :    0.150265
   9 H :    0.291238

-------------------------------
LOEWDIN REDUCED ORBITAL CHARGES
-------------------------------
  0 C s       :     2.892971  s :     2.892971
      pz      :     1.082442  p :     3.122044
      px      :     1.056169
      py      :     0.983432
      dz2     :     0.008668  d :     0.121952
      dxz     :     0.006095
      dyz     :     0.025197
      dx2y2   :     0.035647
      dxy     :     0.046345
  1 C s       :     2.900098  s :     2.900098
      pz      :     1.097701  p :     3.248891
      px      :     1.066977
      py      :     1.084214
      dz2     :     0.006311  d :     0.090135
      dxz     :     0.015630
      dyz     :     0.005899
      dx2y2   :     0.028731
      dxy     :     0.033564
  2 C s       :     2.900038  s :     2.900038
      pz      :     1.097720  p :     3.248872
      px      :     1.075414
      py      :     1.075738
      dz2     :     0.006312  d :     0.090132
      dxz     :     0.008677
      dyz     :     0.012849
      dx2y2   :     0.034050
      dxy     :     0.028245
  3 C s       :     2.892915  s :     2.892915
      pz      :     1.082291  p :     3.121960
      px      :     0.960068
      py      :     1.079602
      dz2     :     0.008668  d :     0.121950
      dxz     :     0.015843
      dyz     :     0.015449
      dx2y2   :     0.040979
      dxy     :     0.041012
  4 N s       :     3.088886  s :     3.088886
      pz      :     1.505937  p :     3.943983
      px      :     1.220829
      py      :     1.217218
      dz2     :     0.005520  d :     0.097834
      dxz     :     0.022112
      dyz     :     0.006159
      dx2y2   :     0.032876
      dxy     :     0.031167
  5 H s       :     0.849732  s :     0.849732
  6 H s       :     0.854515  s :     0.854515
  7 H s       :     0.854595  s :     0.854595
  8 H s       :     0.849735  s :     0.849735
  9 H s       :     0.708762  s :     0.708762


                      *****************************
                      * MAYER POPULATION ANALYSIS *
                      *****************************

  NA   - Mulliken gross atomic population
  ZA   - Total nuclear charge
  QA   - Mulliken gross atomic charge
  VA   - Mayer's total valence
  BVA  - Mayer's bonded valence
  FA   - Mayer's free valence

  ATOM       NA         ZA         QA         VA         BVA        FA
  0 C      6.0785     6.0000    -0.0785     3.6553     3.6553     0.0000
  1 C      6.3688     6.0000    -0.3688     3.8306     3.8306    -0.0000
  2 C      6.3691     6.0000    -0.3691     3.8317     3.8317     0.0000
  3 C      6.0787     6.0000    -0.0787     3.6562     3.6562    -0.0000
  4 N      7.5706     7.0000    -0.5706     3.2882     3.2882     0.0000
  5 H      0.7252     1.0000     0.2748     0.8921     0.8921     0.0000
  6 H      0.7508     1.0000     0.2492     0.9091     0.9091    -0.0000
  7 H      0.7506     1.0000     0.2494     0.9091     0.9091    -0.0000
  8 H      0.7247     1.0000     0.2753     0.8918     0.8918     0.0000
  9 H      0.5831     1.0000     0.4169     0.8066     0.8066    -0.0000

  Mayer bond orders larger than 0.1
B(  0-C ,  1-C ) :   1.5293 B(  0-C ,  4-N ) :   1.1875 B(  0-C ,  5-H ) :   0.8977 
B(  1-C ,  2-C ) :   1.3656 B(  1-C ,  6-H ) :   0.9121 B(  2-C ,  3-C ) :   1.5303 
B(  2-C ,  7-H ) :   0.9119 B(  3-C ,  4-N ) :   1.1879 B(  3-C ,  8-H ) :   0.8973 
B(  4-N ,  9-H ) :   0.7882 

-------
TIMINGS
-------

Total SCF time: 0 days 0 hours 0 min 10 sec 

Total time                  ....      10.338 sec
Sum of individual times     ....      10.272 sec  ( 99.4%)

Fock matrix formation       ....      10.080 sec  ( 97.5%)
  XC integration            ....       0.969 sec  (  9.6% of F)
    Basis function eval.    ....       0.309 sec  ( 31.9% of XC)
    Density eval.           ....       0.160 sec  ( 16.5% of XC)
    XC-Functional eval.     ....       0.076 sec  (  7.8% of XC)
    XC-Potential eval.      ....       0.311 sec  ( 32.1% of XC)
Diagonalization             ....       0.025 sec  (  0.2%)
Density matrix formation    ....       0.004 sec  (  0.0%)
Population analysis         ....       0.003 sec  (  0.0%)
Initial guess               ....       0.009 sec  (  0.1%)
Orbital Transformation      ....       0.000 sec  (  0.0%)
Orbital Orthonormalization  ....       0.000 sec  (  0.0%)
DIIS solution               ....       0.004 sec  (  0.0%)
SOSCF solution              ....       0.027 sec  (  0.3%)
Grid generation             ....       0.120 sec  (  1.2%)


-------------------------------------------------------------------------------
                          DFT DISPERSION CORRECTION                            
                                                                               
                              DFTD3 V3.1  Rev 1                                
                          USING Becke-Johnson damping                          
-------------------------------------------------------------------------------
The PBEh-3c composite method is recognized
Using three-body term ABC
Active option DFTDOPT                   ...         4   

molecular C6(AA) [au] = 1054.252065 


            DFT-D V3
 parameters
 s6 scaling factor         :     1.0000 
 a1 scaling factor         :     0.4860 
 s8 scaling factor         :     0.0000 
 a2 scaling factor         :     4.5000 
 Damping factor alpha9(ATM):    16.0000 
 ad hoc parameters k1-k3   :    16.0000     1.3333    -4.0000 

 Edisp/kcal,au: -2.589557963427  -0.004126722853 
 E6   /kcal   :  -2.592077113 
 E8   /kcal   :  -0.000000000 
 E6(ABC)      :   0.002519150 
 % E8         :   0.000000000 
 % E6(ABC)    :  -0.097281078 

-------------------------   ----------------
Dispersion correction           -0.004126723
-------------------------   ----------------

------------------   -----------------
gCP correction             0.014553273
------------------   -----------------

-------------------------   --------------------
FINAL SINGLE POINT ENERGY      -209.712341691464
-------------------------   --------------------



           ************************************************************
           *        Program running with 4 parallel MPI-processes     *
           *              working on a common directory               *
           ************************************************************
------------------------------------------------------------------------------
                         ORCA SCF GRADIENT CALCULATION
------------------------------------------------------------------------------

Gradient of the Kohn-Sham DFT energy:
Kohn-Sham wavefunction type      ... RKS
Hartree-Fock exchange scaling    ...    0.420
Number of operators              ...    1
Number of atoms                  ...   10
Basis set dimensions             ...   85
Integral neglect threshold       ... 2.5e-11
Integral primitive cutoff        ... 2.5e-12

Nuclear repulsion gradient       ... done
One Electron Gradient            ... done
Pre-screening matrix             ... done
Starting the two electron gradient:
Will do only exchange terms
Two electron gradient done
RI-J gradient                    ... done
Exchange-correlation gradient    ... done
Dispersion correction            ... done
gCP correction                   ... done

------------------
CARTESIAN GRADIENT
------------------

   1   C   :   -0.003653286    0.006165988    0.000044188
   2   C   :    0.006296960    0.001268507    0.000034580
   3   C   :   -0.004391753    0.004826667    0.000039148
   4   C   :    0.006505750    0.002701010    0.000042224
   5   N   :   -0.003186710   -0.010187595    0.000077610
   6   H   :   -0.003039463   -0.001123470   -0.000039873
   7   H   :   -0.000731005    0.002448085   -0.000040895
   8   H   :    0.002048668    0.001578764   -0.000042233
   9   H   :    0.001870562   -0.002738143   -0.000040541
  10   H   :   -0.001719722   -0.004939813   -0.000074209

Difference to translation invariance:
           :   -0.0000000000   -0.0000000000    0.0000000000

Norm of the cartesian gradient     ...    0.0189966116
RMS gradient                       ...    0.0034682909
MAX gradient                       ...    0.0101875954

-------
TIMINGS
-------

Total SCF gradient time            ...        2.160 sec

One electron gradient       ....       0.015 sec  (  0.7%)
Prescreening matrices       ....       0.025 sec  (  1.1%)
Two electron gradient       ....       1.007 sec  ( 46.6%)
RI-J Coulomb gradient       ....       0.233 sec  ( 10.8%)
XC gradient                 ....       0.402 sec  ( 18.6%)
CPCM gradient               ....       0.183 sec  (  8.5%)
   A-Matrix (El+Nuc)        ....       0.005 sec  (  0.2%)
   Potential                ....       0.178 sec  (  8.2%)
------------------------------------------------------------------------------
                         ORCA GEOMETRY RELAXATION STEP
------------------------------------------------------------------------------

Reading the OPT-File                    .... done
Getting information on internals        .... done
Copying old internal coords+grads       .... done
Making the new internal coordinates     .... (new redundants).... done
Validating the new internal coordinates .... (new redundants).... done
Calculating the B-matrix                .... done
Calculating the G,G- and P matrices     .... done
Transforming gradient to internals      .... done
Projecting the internal gradient        .... done
Number of atoms                         ....  10
Number of internal coordinates          ....  45
Current Energy                          ....  -209.712341691 Eh
Current gradient norm                   ....     0.018996612 Eh/bohr
Maximum allowed component of the step   ....  0.300
Current trust radius                    ....  0.300
Evaluating the initial hessian          ....  (Almloef) done
Projecting the Hessian                  .... done
Forming the augmented Hessian           .... done
Diagonalizing the augmented Hessian     .... done
Last element of RFO vector              ....  0.999374843
Lowest eigenvalues of augmented Hessian:
 -0.000632517  0.024915488  0.026744936  0.026932945  0.029112732
Length of the computed step             ....  0.035376370
The final length of the internal step   ....  0.035376370
Converting the step to cartesian space:
 Initial RMS(Int)=    0.0052735979
Transforming coordinates:
 Iter   0:  RMS(Cart)=    0.0087517361 RMS(Int)=    1.8728895803
 Iter   1:  RMS(Cart)=    0.0000170852 RMS(Int)=    0.0000119422
 Iter   2:  RMS(Cart)=    0.0000001064 RMS(Int)=    0.0000000655
 Iter   3:  RMS(Cart)=    0.0000000004 RMS(Int)=    0.0000000002
done
Storing new coordinates                 .... done

                                .--------------------.
          ----------------------|Geometry convergence|-------------------------
          Item                value                   Tolerance       Converged
          ---------------------------------------------------------------------
          RMS gradient        0.0027376191            0.0001000000      NO
          MAX gradient        0.0091883740            0.0003000000      NO
          RMS step            0.0052735979            0.0020000000      NO
          MAX step            0.0158413602            0.0040000000      NO
          ........................................................
          Max(Bonds)      0.0084      Max(Angles)    0.52
          Max(Dihed)        0.09      Max(Improp)    0.00
          ---------------------------------------------------------------------

The optimization has not yet converged - more geometry cycles are needed


    ---------------------------------------------------------------------------
                         Redundant Internal Coordinates
                            (Angstroem and degrees)

        Definition                    Value    dE/dq     Step     New-Value
    ----------------------------------------------------------------------------
     1. B(C   1,C   0)                1.3771  0.005678 -0.0045    1.3726   
     2. B(C   2,C   1)                1.4155 -0.001843  0.0021    1.4176   
     3. B(C   3,C   2)                1.3771  0.005852 -0.0046    1.3725   
     4. B(N   4,C   3)                1.3706  0.009174 -0.0084    1.3622   
     5. B(N   4,C   0)                1.3706  0.009188 -0.0084    1.3622   
     6. B(H   5,C   0)                1.0817  0.003139 -0.0045    1.0772   
     7. B(H   6,C   1)                1.0823  0.002553 -0.0036    1.0787   
     8. B(H   7,C   2)                1.0823  0.002584 -0.0037    1.0786   
     9. B(H   8,C   3)                1.0817  0.003221 -0.0046    1.0771   
    10. B(H   9,N   4)                1.0119  0.005230 -0.0064    1.0055   
    11. A(C   1,C   0,H   5)          131.24  0.000435   -0.07    131.17   
    12. A(N   4,C   0,H   5)          120.77 -0.001226    0.20    120.97   
    13. A(C   1,C   0,N   4)          108.00  0.000791   -0.14    107.86   
    14. A(C   0,C   1,H   6)          125.77 -0.000601    0.05    125.82   
    15. A(C   0,C   1,C   2)          107.34  0.001393   -0.13    107.21   
    16. A(C   2,C   1,H   6)          126.89 -0.000792    0.08    126.97   
    17. A(C   3,C   2,H   7)          125.77 -0.000579    0.04    125.82   
    18. A(C   1,C   2,H   7)          126.89 -0.000825    0.08    126.97   
    19. A(C   1,C   2,C   3)          107.34  0.001404   -0.13    107.21   
    20. A(N   4,C   3,H   8)          120.77 -0.001154    0.19    120.96   
    21. A(C   2,C   3,H   8)          131.24  0.000444   -0.06    131.17   
    22. A(C   2,C   3,N   4)          107.99  0.000710   -0.13    107.86   
    23. A(C   3,N   4,H   9)          125.33  0.002246   -0.28    125.06   
    24. A(C   0,N   4,H   9)          125.33  0.002052   -0.25    125.09   
    25. A(C   0,N   4,C   3)          109.33 -0.004298    0.52    109.86   
    26. D(H   6,C   1,C   0,H   5)     -0.00  0.000002    0.00     -0.00   
    27. D(C   2,C   1,C   0,N   4)     -0.00 -0.000001    0.00      0.00   
    28. D(C   2,C   1,C   0,H   5)    180.00  0.000038   -0.07    179.92   
    29. D(H   6,C   1,C   0,N   4)    180.00 -0.000037    0.08    180.08   
    30. D(C   3,C   2,C   1,H   6)   -180.00  0.000037   -0.08   -180.08   
    31. D(H   7,C   2,C   1,C   0)    180.00 -0.000037    0.08    180.08   
    32. D(C   3,C   2,C   1,C   0)      0.00  0.000000   -0.00     -0.00   
    33. D(H   7,C   2,C   1,H   6)     -0.00 -0.000000    0.00      0.00   
    34. D(H   8,C   3,C   2,H   7)      0.00 -0.000002   -0.00     -0.00   
    35. D(H   8,C   3,C   2,C   1)   -180.00 -0.000038    0.08   -179.92   
    36. D(N   4,C   3,C   2,H   7)   -180.00  0.000038   -0.08   -180.08   
    37. D(N   4,C   3,C   2,C   1)     -0.00  0.000001   -0.00     -0.00   
    38. D(H   9,N   4,C   0,C   1)    180.00  0.000045   -0.09    179.91   
    39. D(C   3,N   4,C   0,H   5)   -180.00 -0.000033    0.06   -179.93   
    40. D(C   3,N   4,C   0,C   1)     -0.00  0.000002   -0.00     -0.00   
    41. D(H   9,N   4,C   3,H   8)     -0.00 -0.000010    0.02      0.02   
    42. D(H   9,N   4,C   3,C   2)   -180.00 -0.000045    0.09   -179.91   
    43. D(C   0,N   4,C   3,H   8)    180.00  0.000033   -0.07    179.93   
    44. D(C   0,N   4,C   3,C   2)      0.00 -0.000002    0.00      0.00   
    45. D(H   9,N   4,C   0,H   5)      0.00  0.000010   -0.02     -0.02   
    ----------------------------------------------------------------------------

         *************************************************************
         *                GEOMETRY OPTIMIZATION CYCLE   2            *
         *************************************************************
---------------------------------
CARTESIAN COORDINATES (ANGSTROEM)
---------------------------------
  C     -1.167782    0.009575   -0.000438
  C     -0.376137    1.130879   -0.000158
  C      0.971961    0.692579   -0.000395
  C      0.952752   -0.679743   -0.000808
  N     -0.349487   -1.079439   -0.000804
  H     -2.239202   -0.102054    0.000675
  H     -0.726547    2.151034    0.001326
  H      1.855350    1.311489    0.000877
  H      1.753525   -1.400082   -0.000021
  H     -0.660073   -2.035759    0.000185

----------------------------
CARTESIAN COORDINATES (A.U.)
----------------------------
  NO LB      ZA    FRAG     MASS         X           Y           Z
   0 C     6.0000    0    12.011   -2.206788    0.018094   -0.000828
   1 C     6.0000    0    12.011   -0.710796    2.137052   -0.000298
   2 C     6.0000    0    12.011    1.836741    1.308785   -0.000746
   3 C     6.0000    0    12.011    1.800440   -1.284529   -0.001527
   4 N     7.0000    0    14.007   -0.660435   -2.039845   -0.001518
   5 H     1.0000    0     1.008   -4.231478   -0.192854    0.001275
   6 H     1.0000    0     1.008   -1.372975    4.064866    0.002505
   7 H     1.0000    0     1.008    3.506103    2.478356    0.001658
   8 H     1.0000    0     1.008    3.313682   -2.645771   -0.000040
   9 H     1.0000    0     1.008   -1.247357   -3.847027    0.000350

--------------------------------
INTERNAL COORDINATES (ANGSTROEM)
--------------------------------
 C      0   0   0     0.000000000000     0.00000000     0.00000000
 C      1   0   0     1.372598236017     0.00000000     0.00000000
 C      2   1   0     1.417559825468   107.21160936     0.00000000
 C      3   2   1     1.372457208945   107.20866615     0.00000000
 N      1   2   3     1.362189121646   107.85624602     0.00000000
 H      1   2   3     1.077219644846   131.17026727   179.92475638
 H      2   1   3     1.078659088583   125.82079941   180.07508558
 H      3   2   1     1.078622317339   126.97389383   180.07654116
 H      4   3   2     1.077091528139   131.17108503   180.07537458
 H      5   1   2     1.005490692069   125.08610602   179.91301882

---------------------------
INTERNAL COORDINATES (A.U.)
---------------------------
 C      0   0   0     0.000000000000     0.00000000     0.00000000
 C      1   0   0     2.593834757975     0.00000000     0.00000000
 C      2   1   0     2.678799848584   107.21160936     0.00000000
 C      3   2   1     2.593568255432   107.20866615     0.00000000
 N      1   2   3     2.574164382517   107.85624602     0.00000000
 H      1   2   3     2.035650114839   131.17026727   179.92475638
 H      2   1   3     2.038370269287   125.82079941   180.07508558
 H      3   2   1     2.038300781706   126.97389383   180.07654116
 H      4   3   2     2.035408009349   131.17108503   180.07537458
 H      5   1   2     1.900102038218   125.08610602   179.91301882



           ************************************************************
           *        Program running with 4 parallel MPI-processes     *
           *              working on a common directory               *
           ************************************************************
 One Electron integrals                  ... done
 Pre-screening matrix                    ... done


           ************************************************************
           *        Program running with 4 parallel MPI-processes     *
           *              working on a common directory               *
           ************************************************************

Diagonalization of the overlap matrix:
Smallest eigenvalue                        ... 1.166e-03
Time for diagonalization                   ...    0.002 sec
Threshold for overlap eigenvalues          ... 1.000e-08
Number of eigenvalues below threshold      ... 0
Time for construction of square roots      ...    0.001 sec
Total time needed                          ...    0.003 sec

-------------------
DFT GRID GENERATION
-------------------

General Integration Accuracy     IntAcc      ...  4.340
Radial Grid Type                 RadialGrid  ... Gauss-Chebyshev
Angular Grid (max. acc.)         AngularGrid ... Lebedev-194
Angular grid pruning method      GridPruning ... 3 (G Style)
Weight generation scheme         WeightScheme... Becke
Basis function cutoff            BFCut       ...    1.0000e-11
Integration weight cutoff        WCut        ...    1.0000e-14
Grids for H and He will be reduced by one unit

# of grid points (after initial pruning)     ...  24080 (   0.0 sec)
# of grid points (after weights+screening)   ...  22681 (   0.0 sec)
nearest neighbour list constructed           ...    0.0 sec
Grid point re-assignment to atoms done       ...    0.0 sec
Grid point division into batches done        ...    0.1 sec
Reduced shell lists constructed in    0.1 sec

Total number of grid points                  ...    22681
Total number of batches                      ...      358
Average number of points per batch           ...       63
Average number of grid points per atom       ...     2268
Average number of shells per batch           ...    38.11 (84.69%)
Average number of basis functions per batch  ...    77.65 (91.35%)
Average number of large shells per batch     ...    34.30 (89.99%)
Average number of large basis fcns per batch ...    73.11 (94.16%)
Maximum spatial batch extension              ...   3.86,  3.96, 18.58 au
Average spatial batch extension              ...   0.38,  0.37,  0.59 au

Time for grid setup =    0.121 sec


------------------------------------------------------------------------------
                           CPCM SOLVATION MODEL                               
------------------------------------------------------------------------------
CPCM parameters:
  Epsilon                                         ...      78.3550
  Refrac                                          ...       1.3300
  Rsolv                                           ...       1.3000
  Surface type                                    ...    GEPOL SES
  Epsilon function type                           ...         CPCM
Solvent:                                     ... WATER
SMD-CDS solvent descriptors:
  Soln                                       ...    1.3328
  Soln25                                     ...    1.3323
  Sola                                       ...    0.0000
  Solb                                       ...    0.0000
  Solg                                       ...    0.0000
  Solc                                       ...    0.0000
  Solh                                       ...    0.0000
Radii:
 Radius for C  used is    3.4960 Bohr (=   1.8500 Ang.)
 Radius for N  used is    3.5716 Bohr (=   1.8900 Ang.)
 Radius for H  used is    2.2677 Bohr (=   1.2000 Ang.)
Calculating surface                               ...        done! (  0.0s)
GEPOL surface points                              ...          310
GEPOL Volume                                      ...     536.4264
GEPOL Surface-area                                ...     349.5969
Calculating surface distance matrix               ...        done! (  0.0s)
Performing Cholesky decomposition & store         ...        done! (  0.0s)
Overall time for CPCM initialization              ...                 0.0s
--------------
SCF ITERATIONS
--------------
ITER       Energy         Delta-E        Max-DP      RMS-DP      [F,P]     Damp
               ***  Starting incremental Fock matrix formation  ***
                      *** Initiating the SOSCF procedure ***
                      *** Re-Reading the Fockian *** 
                      *** Removing any level shift *** 
ITER      Energy       Delta-E        Grad      Rot      Max-DP    RMS-DP
  0   -209.72826877 -209.7282687730  0.001720  0.001720  0.004871  0.000217
               *** Restarting incremental Fock matrix formation ***
  1   -209.72834604  -0.0000772710  0.000738  0.001583  0.002576  0.000083
  2   -209.72834834  -0.0000022973  0.000690  0.000857  0.001386  0.000041
  3   -209.72835515  -0.0000068102  0.000076  0.000100  0.000169  0.000010
  4   -209.72835519  -0.0000000361  0.000075  0.000050  0.000074  0.000004
                  ***Gradient check signals convergence***
              ***Rediagonalizing the Fockian in SOSCF/NRSCF***

               *****************************************************
               *                     SUCCESS                       *
               *           SCF CONVERGED AFTER   5 CYCLES          *
               *****************************************************


SMD CDS free energy correction energy :                 3.21200     Kcal/mol
Total Energy after SMD CDS correction =              -209.723236613 Eh
Total Energy       :         -209.72323661 Eh           -5706.85940 eV
  Last Energy change         ...   -7.2239e-08  Tolerance :   1.0000e-08
  Last MAX-Density change    ...    4.7557e-06  Tolerance :   1.0000e-07
             **** THE GBW FILE WAS UPDATED (pyrrole@water.gbw) ****
             **** DENSITY FILE WAS UPDATED (pyrrole@water.scfp.tmp) ****
             **** ENERGY FILE WAS UPDATED (pyrrole@water.en.tmp) ****
Total SCF time: 0 days 0 hours 0 min 4 sec 


-------------------------------------------------------------------------------
                          DFT DISPERSION CORRECTION                            
                                                                               
                              DFTD3 V3.1  Rev 1                                
                          USING Becke-Johnson damping                          
-------------------------------------------------------------------------------
-------------------------   ----------------
Dispersion correction           -0.004126822
-------------------------   ----------------

------------------   -----------------
gCP correction             0.014681445
------------------   -----------------

-------------------------   --------------------
FINAL SINGLE POINT ENERGY      -209.712681989014
-------------------------   --------------------



           ************************************************************
           *        Program running with 4 parallel MPI-processes     *
           *              working on a common directory               *
           ************************************************************
------------------------------------------------------------------------------
                         ORCA SCF GRADIENT CALCULATION
------------------------------------------------------------------------------

Gradient of the Kohn-Sham DFT energy:
Kohn-Sham wavefunction type      ... RKS
Hartree-Fock exchange scaling    ...    0.420
Number of operators              ...    1
Number of atoms                  ...   10
Basis set dimensions             ...   85
Integral neglect threshold       ... 2.5e-11
Integral primitive cutoff        ... 2.5e-12

Nuclear repulsion gradient       ... done
One Electron Gradient            ... done
Pre-screening matrix             ... done
Starting the two electron gradient:
Will do only exchange terms
Two electron gradient done
RI-J gradient                    ... done
Exchange-correlation gradient    ... done
Dispersion correction            ... done
gCP correction                   ... done

------------------
CARTESIAN GRADIENT
------------------

   1   C   :   -0.001311369    0.002995476   -0.000017035
   2   C   :    0.001841908   -0.000666484   -0.000008129
   3   C   :   -0.001883766    0.000568539   -0.000007845
   4   C   :    0.002804255    0.001602523   -0.000015499
   5   N   :   -0.001223952   -0.004055604    0.000076847
   6   H   :    0.000206263   -0.000589472   -0.000002690
   7   H   :   -0.000067904   -0.000155750    0.000006532
   8   H   :   -0.000033620   -0.000163679    0.000004964
   9   H   :   -0.000504560   -0.000341301   -0.000003682
  10   H   :    0.000172745    0.000805753   -0.000033463

Difference to translation invariance:
           :   -0.0000000000    0.0000000000    0.0000000000

Norm of the cartesian gradient     ...    0.0069486579
RMS gradient                       ...    0.0012686456
MAX gradient                       ...    0.0040556045

-------
TIMINGS
-------

Total SCF gradient time            ...        2.165 sec

One electron gradient       ....       0.015 sec  (  0.7%)
Prescreening matrices       ....       0.026 sec  (  1.2%)
Two electron gradient       ....       1.011 sec  ( 46.7%)
RI-J Coulomb gradient       ....       0.234 sec  ( 10.8%)
XC gradient                 ....       0.401 sec  ( 18.5%)
CPCM gradient               ....       0.183 sec  (  8.5%)
   A-Matrix (El+Nuc)        ....       0.005 sec  (  0.2%)
   Potential                ....       0.179 sec  (  8.2%)
------------------------------------------------------------------------------
                         ORCA GEOMETRY RELAXATION STEP
------------------------------------------------------------------------------

Reading the OPT-File                    .... done
Getting information on internals        .... done
Copying old internal coords+grads       .... done
Making the new internal coordinates     .... (new redundants).... done
Validating the new internal coordinates .... (new redundants).... done
Calculating the B-matrix                .... done
Calculating the G,G- and P matrices     .... done
Transforming gradient to internals      .... done
Projecting the internal gradient        .... done
Number of atoms                         ....  10
Number of internal coordinates          ....  45
Current Energy                          ....  -209.712681989 Eh
Current gradient norm                   ....     0.006948658 Eh/bohr
Maximum allowed component of the step   ....  0.300
Current trust radius                    ....  0.300
Updating the Hessian (BFGS)             .... done
Forming the augmented Hessian           .... done
Diagonalizing the augmented Hessian     .... done
Last element of RFO vector              ....  0.999957774
Lowest eigenvalues of augmented Hessian:
 -0.000033442  0.024915487  0.026745295  0.026932946  0.029108487
Length of the computed step             ....  0.009190047
The final length of the internal step   ....  0.009190047
Converting the step to cartesian space:
 Initial RMS(Int)=    0.0013699713
Transforming coordinates:
 Iter   0:  RMS(Cart)=    0.0012470485 RMS(Int)=    0.0013700826
 Iter   1:  RMS(Cart)=    0.0000016502 RMS(Int)=    0.0000012048
 Iter   2:  RMS(Cart)=    0.0000000028 RMS(Int)=    0.0000000019
done
Storing new coordinates                 .... done

                                .--------------------.
          ----------------------|Geometry convergence|-------------------------
          Item                value                   Tolerance       Converged
          ---------------------------------------------------------------------
          Energy change      -0.0003402976            0.0000050000      NO
          RMS gradient        0.0005548097            0.0001000000      NO
          MAX gradient        0.0019166847            0.0003000000      NO
          RMS step            0.0013699713            0.0020000000      YES
          MAX step            0.0044252478            0.0040000000      NO
          ........................................................
          Max(Bonds)      0.0023      Max(Angles)    0.14
          Max(Dihed)        0.03      Max(Improp)    0.00
          ---------------------------------------------------------------------

The optimization has not yet converged - more geometry cycles are needed


    ---------------------------------------------------------------------------
                         Redundant Internal Coordinates
                            (Angstroem and degrees)

        Definition                    Value    dE/dq     Step     New-Value
    ----------------------------------------------------------------------------
     1. B(C   1,C   0)                1.3726 -0.000043 -0.0001    1.3725   
     2. B(C   2,C   1)                1.4176 -0.001288  0.0016    1.4191   
     3. B(C   3,C   2)                1.3725  0.000010 -0.0001    1.3723   
     4. B(N   4,C   3)                1.3622  0.001917 -0.0023    1.3599   
     5. B(N   4,C   0)                1.3622  0.001911 -0.0023    1.3599   
     6. B(H   5,C   0)                1.0772 -0.000144  0.0001    1.0773   
     7. B(H   6,C   1)                1.0787 -0.000125  0.0001    1.0787   
     8. B(H   7,C   2)                1.0786 -0.000121  0.0001    1.0787   
     9. B(H   8,C   3)                1.0771 -0.000147  0.0001    1.0772   
    10. B(H   9,N   4)                1.0055 -0.000820  0.0009    1.0064   
    11. A(C   1,C   0,H   5)          131.17  0.000672   -0.12    131.05   
    12. A(N   4,C   0,H   5)          120.97 -0.000576    0.12    121.09   
    13. A(C   1,C   0,N   4)          107.86 -0.000097   -0.00    107.86   
    14. A(C   0,C   1,H   6)          125.82 -0.000422    0.06    125.88   
    15. A(C   0,C   1,C   2)          107.21  0.000599   -0.07    107.14   
    16. A(C   2,C   1,H   6)          126.97 -0.000177    0.01    126.98   
    17. A(C   3,C   2,H   7)          125.82 -0.000413    0.06    125.87   
    18. A(C   1,C   2,H   7)          126.97 -0.000191    0.02    126.99   
    19. A(C   1,C   2,C   3)          107.21  0.000604   -0.07    107.13   
    20. A(N   4,C   3,H   8)          120.96 -0.000533    0.11    121.08   
    21. A(C   2,C   3,H   8)          131.17  0.000659   -0.12    131.06   
    22. A(C   2,C   3,N   4)          107.86 -0.000126    0.00    107.87   
    23. A(C   3,N   4,H   9)          125.06  0.000566   -0.09    124.97   
    24. A(C   0,N   4,H   9)          125.09  0.000415   -0.06    125.03   
    25. A(C   0,N   4,C   3)          109.86 -0.000980    0.14    110.00   
    26. D(H   6,C   1,C   0,H   5)     -0.00  0.000003   -0.01     -0.01   
    27. D(C   2,C   1,C   0,N   4)      0.00  0.000006   -0.01     -0.01   
    28. D(C   2,C   1,C   0,H   5)    179.92  0.000004   -0.01    179.91   
    29. D(H   6,C   1,C   0,N   4)   -179.92  0.000006   -0.01   -179.93   
    30. D(C   3,C   2,C   1,H   6)    179.92 -0.000000   -0.00    179.92   
    31. D(H   7,C   2,C   1,C   0)   -179.92 -0.000001    0.01   -179.92   
    32. D(C   3,C   2,C   1,C   0)     -0.00 -0.000001    0.00      0.00   
    33. D(H   7,C   2,C   1,H   6)      0.00 -0.000000    0.00      0.00   
    34. D(H   8,C   3,C   2,H   7)     -0.00 -0.000003    0.01      0.01   
    35. D(H   8,C   3,C   2,C   1)   -179.92 -0.000004    0.01   -179.91   
    36. D(N   4,C   3,C   2,H   7)    179.92 -0.000005    0.01    179.93   
    37. D(N   4,C   3,C   2,C   1)     -0.00 -0.000006    0.01      0.01   
    38. D(H   9,N   4,C   0,C   1)    179.91  0.000012   -0.03    179.88   
    39. D(C   3,N   4,C   0,H   5)   -179.93 -0.000009    0.02   -179.91   
    40. D(C   3,N   4,C   0,C   1)     -0.00 -0.000010    0.02      0.02   
    41. D(H   9,N   4,C   3,H   8)      0.02 -0.000012    0.03      0.05   
    42. D(H   9,N   4,C   3,C   2)   -179.91 -0.000012    0.03   -179.88   
    43. D(C   0,N   4,C   3,H   8)    179.93  0.000009   -0.02    179.91   
    44. D(C   0,N   4,C   3,C   2)      0.00  0.000010   -0.02     -0.02   
    45. D(H   9,N   4,C   0,H   5)     -0.02  0.000013   -0.03     -0.05   
    ----------------------------------------------------------------------------

         *************************************************************
         *                GEOMETRY OPTIMIZATION CYCLE   3            *
         *************************************************************
---------------------------------
CARTESIAN COORDINATES (ANGSTROEM)
---------------------------------
  C     -1.167175    0.008589   -0.000449
  C     -0.376996    1.130819   -0.000196
  C      0.972603    0.692016   -0.000426
  C      0.951600   -0.680135   -0.000833
  N     -0.348899   -1.077523   -0.001107
  H     -2.238750   -0.102176    0.000839
  H     -0.727684    2.150948    0.001331
  H      1.856240    1.310673    0.000911
  H      1.752933   -1.399949    0.000130
  H     -0.659513   -2.034782    0.000238

----------------------------
CARTESIAN COORDINATES (A.U.)
----------------------------
  NO LB      ZA    FRAG     MASS         X           Y           Z
   0 C     6.0000    0    12.011   -2.205641    0.016230   -0.000848
   1 C     6.0000    0    12.011   -0.712419    2.136938   -0.000371
   2 C     6.0000    0    12.011    1.837954    1.307720   -0.000804
   3 C     6.0000    0    12.011    1.798264   -1.285268   -0.001574
   4 N     7.0000    0    14.007   -0.659324   -2.036224   -0.002092
   5 H     1.0000    0     1.008   -4.230624   -0.193084    0.001586
   6 H     1.0000    0     1.008   -1.375123    4.064703    0.002516
   7 H     1.0000    0     1.008    3.507785    2.476813    0.001722
   8 H     1.0000    0     1.008    3.312564   -2.645520    0.000246
   9 H     1.0000    0     1.008   -1.246298   -3.845180    0.000450

--------------------------------
INTERNAL COORDINATES (ANGSTROEM)
--------------------------------
 C      0   0   0     0.000000000000     0.00000000     0.00000000
 C      1   0   0     1.372509948084     0.00000000     0.00000000
 C      2   1   0     1.419142583995   107.13875927     0.00000000
 C      3   2   1     1.372310971732   107.13426867     0.00000000
 N      1   2   3     1.359858524258   107.85570456     0.00000000
 H      1   2   3     1.077284560442   131.05139648   179.91290828
 H      2   1   3     1.078725410864   125.87866988   180.07957432
 H      3   2   1     1.078680951703   126.99184841   180.08198894
 H      4   3   2     1.077157619386   131.05544952   180.08720760
 H      5   1   2     1.006392461948   125.02826243   179.88488322

---------------------------
INTERNAL COORDINATES (A.U.)
---------------------------
 C      0   0   0     0.000000000000     0.00000000     0.00000000
 C      1   0   0     2.593667917962     0.00000000     0.00000000
 C      2   1   0     2.681790828736   107.13875927     0.00000000
 C      3   2   1     2.593291907150   107.13426867     0.00000000
 N      1   2   3     2.569760191726   107.85570456     0.00000000
 H      1   2   3     2.035772787537   131.05139648   179.91290828
 H      2   1   3     2.038495600235   125.87866988   180.07957432
 H      3   2   1     2.038411584597   126.99184841   180.08198894
 H      4   3   2     2.035532903707   131.05544952   180.08720760
 H      5   1   2     1.901806136324   125.02826243   179.88488322



           ************************************************************
           *        Program running with 4 parallel MPI-processes     *
           *              working on a common directory               *
           ************************************************************
 One Electron integrals                  ... done
 Pre-screening matrix                    ... done


           ************************************************************
           *        Program running with 4 parallel MPI-processes     *
           *              working on a common directory               *
           ************************************************************

Diagonalization of the overlap matrix:
Smallest eigenvalue                        ... 1.167e-03
Time for diagonalization                   ...    0.002 sec
Threshold for overlap eigenvalues          ... 1.000e-08
Number of eigenvalues below threshold      ... 0
Time for construction of square roots      ...    0.001 sec
Total time needed                          ...    0.003 sec

-------------------
DFT GRID GENERATION
-------------------

General Integration Accuracy     IntAcc      ...  4.340
Radial Grid Type                 RadialGrid  ... Gauss-Chebyshev
Angular Grid (max. acc.)         AngularGrid ... Lebedev-194
Angular grid pruning method      GridPruning ... 3 (G Style)
Weight generation scheme         WeightScheme... Becke
Basis function cutoff            BFCut       ...    1.0000e-11
Integration weight cutoff        WCut        ...    1.0000e-14
Grids for H and He will be reduced by one unit

# of grid points (after initial pruning)     ...  24080 (   0.0 sec)
# of grid points (after weights+screening)   ...  22682 (   0.0 sec)
nearest neighbour list constructed           ...    0.0 sec
Grid point re-assignment to atoms done       ...    0.0 sec
Grid point division into batches done        ...    0.1 sec
Reduced shell lists constructed in    0.1 sec

Total number of grid points                  ...    22682
Total number of batches                      ...      359
Average number of points per batch           ...       63
Average number of grid points per atom       ...     2268
Average number of shells per batch           ...    38.10 (84.66%)
Average number of basis functions per batch  ...    77.64 (91.34%)
Average number of large shells per batch     ...    34.26 (89.93%)
Average number of large basis fcns per batch ...    72.99 (94.01%)
Maximum spatial batch extension              ...   3.86,  4.26, 18.58 au
Average spatial batch extension              ...   0.37,  0.37,  0.60 au

Time for grid setup =    0.122 sec


------------------------------------------------------------------------------
                           CPCM SOLVATION MODEL                               
------------------------------------------------------------------------------
CPCM parameters:
  Epsilon                                         ...      78.3550
  Refrac                                          ...       1.3300
  Rsolv                                           ...       1.3000
  Surface type                                    ...    GEPOL SES
  Epsilon function type                           ...         CPCM
Solvent:                                     ... WATER
SMD-CDS solvent descriptors:
  Soln                                       ...    1.3328
  Soln25                                     ...    1.3323
  Sola                                       ...    0.0000
  Solb                                       ...    0.0000
  Solg                                       ...    0.0000
  Solc                                       ...    0.0000
  Solh                                       ...    0.0000
Radii:
[...]
     14       0.000000   0.000000   0.000000   0.000000   0.000000   0.000000
     15       0.000000   0.000000   0.000000   0.000000   0.000000   0.000000
     16       0.000000   0.000000   0.000000   0.000000   0.000000   0.000000
     17       0.000000   0.000000   0.000000   0.000000   0.000000   0.000000
     18       0.000000   0.000000   0.000000   0.000000   0.000000   0.000000
     19       0.000000   0.000000   0.000000   0.000000   0.000000   0.000000
     20       0.000000   0.000000   0.000000   0.000000   0.000000   0.000000
     21       0.000000   0.000000   0.000000   0.000000   0.000000   0.000000
     22       0.000000   0.000000   0.000000   0.000000   0.000000   0.000000
     23       0.000000   0.000000   0.000000   0.000000   0.000000   0.000000
     24       0.000000   0.000000   0.000000   0.000000   0.000000   0.000000
     25       0.000000   0.000000   0.000000   0.000000   0.000000   0.000000
     26       0.000000   0.000000   0.000000   0.000000   0.000000   0.000000
     27       0.000000   0.000000   0.000000   0.000000   0.000000   0.000000
     28       0.000000   0.000000   0.000000   0.000000   0.000000   0.000000
     29       0.000000   0.000000   0.000000   0.000000   0.000000   0.000000
                  6          7          8          9         10         11    
      0       0.000198   0.000184  -0.000203  -0.000104   0.000250   0.000856
      1       0.000101  -0.000000  -0.000068  -0.000007   0.000078  -0.000048
      2       0.052321   0.138360   0.172142  -0.048181  -0.111196  -0.082089
      3      -0.000285  -0.000120   0.000093  -0.000112  -0.000022   0.000300
      4       0.000073   0.000146  -0.000111   0.000013   0.000258   0.000682
      5       0.005399  -0.256684  -0.099940  -0.006417  -0.060267   0.053385
      6      -0.000152  -0.000156   0.000171   0.000042  -0.000146  -0.000371
      7      -0.000141  -0.000143  -0.000008  -0.000007   0.000026   0.000284
      8       0.002939   0.264895  -0.078793   0.056643  -0.023816   0.080077
      9       0.000423   0.000193  -0.000217  -0.000028  -0.000090  -0.000798
     10      -0.000083  -0.000087   0.000007  -0.000050  -0.000057   0.000274
     11       0.051565  -0.155431   0.153952   0.129735   0.004053  -0.092981
     12       0.000073  -0.000065  -0.000040   0.000104   0.000011  -0.000216
     13      -0.000203   0.000060   0.000314   0.000147  -0.000244  -0.001054
     14      -0.186225   0.006484  -0.134345  -0.030494   0.039091   0.022656
     15       0.000472   0.000414   0.000041   0.000339   0.001155   0.001511
     16      -0.000607   0.000124   0.000075  -0.000334  -0.000033   0.000931
     17       0.230893   0.399188   0.384274   0.283054   0.615733   0.542609
     18      -0.000205  -0.000219   0.000369  -0.000332  -0.000146  -0.000947
     19       0.000160   0.000363  -0.000175  -0.000054  -0.000607   0.000691
     20      -0.069327  -0.467018   0.037408  -0.017012   0.701729  -0.320483
     21      -0.000230  -0.000600  -0.000096   0.000819  -0.000487   0.001571
     22       0.000066   0.000133   0.000076  -0.000012   0.000019  -0.001662
     23      -0.072140   0.479375   0.089728  -0.642730   0.312165  -0.448420
     24       0.000639   0.000026  -0.000677   0.000028   0.000127   0.000271
     25       0.000452  -0.000568  -0.000213  -0.001061   0.000167   0.002331
     26       0.247060  -0.457751   0.380755  -0.690560  -0.007526   0.586823
     27      -0.003883   0.000078   0.002788   0.000107  -0.000714   0.000745
     28       0.003357   0.000129  -0.001975   0.000024   0.000214  -0.001852
     29       0.914055   0.061683  -0.781228  -0.079259   0.113292  -0.179560
                 12         13         14         15         16         17    
      0      -0.213264  -0.238233   0.009872  -0.014070   0.092798   0.084479
      1      -0.093330   0.028387  -0.000357   0.032397   0.016688  -0.079103
      2      -0.002208  -0.008001  -0.066486   0.000065   0.000003   0.000050
      3       0.147151  -0.057339   0.001195   0.088435  -0.020029   0.053879
      4      -0.318664  -0.117877   0.006156  -0.049176  -0.052475   0.043701
      5       0.002682   0.012000   0.112297  -0.000088   0.000080  -0.000031
      6       0.308175  -0.015569  -0.001463  -0.099097   0.018097  -0.016577
      7       0.174873  -0.125482   0.003448   0.014337   0.051543   0.068784
      8      -0.001843  -0.009314  -0.097948   0.000171   0.000047   0.000099
      9      -0.124544   0.206369  -0.006608   0.032443   0.067521  -0.112822
     10       0.204713  -0.112119   0.002613   0.016450  -0.068242  -0.016497
     11       0.000848   0.003936   0.050644   0.000120  -0.000139  -0.000071
     12      -0.102388   0.093292  -0.002647  -0.028803  -0.049367   0.005698
     13       0.028417   0.291145  -0.010625  -0.085295   0.017616   0.021717
     14      -0.000217   0.000723   0.000930  -0.000107   0.000166  -0.000052
     15      -0.250630  -0.208590   0.009650  -0.042851   0.070859   0.141340
     16       0.228972  -0.348474   0.010904   0.311295   0.321093  -0.579626
     17       0.013086   0.047101   0.395778  -0.000388   0.000255  -0.000725
     18       0.021710   0.398480  -0.014022   0.599520  -0.526337   0.313343
     19      -0.366959   0.034594   0.001946   0.118116  -0.230523   0.133060
     20      -0.016253  -0.068559  -0.650068   0.000622  -0.000308   0.000275
     21       0.248826  -0.296865   0.007754  -0.424857  -0.271169  -0.184780
     22       0.269073   0.268806  -0.010526   0.465213   0.471503   0.309394
     23       0.013536   0.052975   0.558452  -0.001092  -0.001176  -0.000493
     24      -0.337243  -0.043135   0.003687   0.211076  -0.124890  -0.456283
     25      -0.025128  -0.403128   0.014026   0.214524  -0.296252  -0.390844
     26      -0.005413  -0.021599  -0.279401  -0.000557   0.001130   0.000445
     27       0.339798   0.102171  -0.005977  -0.034520  -0.349737   0.000449
     28      -0.114668   0.300004  -0.010026  -0.090826   0.114806   0.025042
     29       0.004265  -0.003530  -0.019907  -0.000279  -0.002101   0.000655
                 18         19         20         21         22         23    
      0       0.012959   0.218705  -0.026531   0.168064  -0.113547   0.016216
      1      -0.051807  -0.023448   0.084193   0.042820   0.185173   0.257593
      2       0.000027   0.000010   0.000006  -0.000148   0.000334   0.000050
      3       0.019374   0.130116   0.075732  -0.345005  -0.021195   0.012123
      4      -0.031064  -0.252587   0.030486  -0.048651  -0.080374  -0.110137
      5      -0.000119  -0.000088   0.000016   0.000086  -0.000175  -0.000027
      6       0.034934  -0.253391   0.043226   0.250297   0.031629  -0.074408
      7       0.014249  -0.127630  -0.070061  -0.243941   0.078603  -0.081462
      8      -0.000016  -0.000120   0.000068   0.000074   0.000063  -0.000052
      9       0.042744  -0.190036  -0.070761  -0.109920  -0.202721   0.136305
     10       0.033892   0.110979  -0.051498   0.135589  -0.086373   0.217599
     11       0.000050   0.000168   0.000012  -0.000099  -0.000218   0.000011
     12      -0.083611   0.078299  -0.015919   0.005135   0.330052  -0.040799
     13       0.026226   0.242295   0.004914   0.015569  -0.106157  -0.133206
     14       0.000320   0.000050  -0.000126   0.000150   0.000244   0.000100
     15       0.054194   0.225040   0.024252   0.185893  -0.104422   0.106647
     16      -0.464060   0.273679  -0.453131   0.162000  -0.026402  -0.586391
     17       0.000221  -0.000361  -0.000351   0.000144   0.000047  -0.000146
     18       0.089117  -0.140184  -0.435169   0.479392  -0.004117  -0.099833
     19      -0.010560  -0.386294  -0.141170   0.237953  -0.079746  -0.179632
     20      -0.000391  -0.000265   0.000008  -0.000114  -0.000291  -0.000187
     21       0.079291  -0.110149  -0.268820  -0.249424   0.042636  -0.024796
     22      -0.042869  -0.399716   0.368641   0.474199   0.072237  -0.203552
     23      -0.000109   0.000120  -0.000194  -0.000715  -0.000142  -0.000217
     24       0.320244  -0.015068   0.288096  -0.058180  -0.061540  -0.435561
     25       0.344065   0.360633   0.354199   0.238521   0.089319  -0.412256
     26      -0.000006  -0.000696  -0.000318   0.000328   0.000229   0.000209
     27      -0.691861   0.079642   0.354692   0.006648  -0.814686  -0.054731
     28       0.222807   0.272350  -0.114838   0.031558   0.263568  -0.146364
     29      -0.003467   0.000854   0.001393  -0.000675  -0.003277  -0.000832
                 24         25         26         27         28         29    
      0       0.123644   0.013656  -0.024584  -0.056798  -0.064787  -0.002383
      1       0.177218   0.000046   0.000874  -0.008074  -0.007764   0.001525
      2      -0.000053  -0.000023   0.000032   0.000073   0.000068   0.000009
      3      -0.150688  -0.015515   0.022072  -0.001065  -0.007455   0.001096
      4      -0.186230   0.052468  -0.059307   0.017458   0.028307   0.001204
      5      -0.000025   0.000054  -0.000055   0.000001   0.000026   0.000004
      6      -0.011494  -0.051183  -0.045971  -0.013193   0.019946  -0.000177
      7       0.237099  -0.038478  -0.030001  -0.015310   0.015715   0.001663
      8       0.000064  -0.000053  -0.000040  -0.000003   0.000021   0.000002
      9      -0.004204   0.012911   0.017655  -0.048010   0.041521   0.002793
     10      -0.214233  -0.009107  -0.011613   0.046275  -0.038390  -0.000182
     11       0.000010   0.000020   0.000018  -0.000058   0.000037   0.000005
     12      -0.088272   0.000383   0.000152   0.003582  -0.000036  -0.023310
     13       0.028509  -0.000087   0.000384  -0.001112  -0.000946  -0.072254
     14      -0.000105  -0.000000  -0.000011  -0.000003   0.000003   0.000136
     15       0.211681  -0.172155   0.292736   0.624789   0.691949   0.009732
     16      -0.274970  -0.015087   0.026486   0.064348   0.071534  -0.001255
     17      -0.000392   0.000197  -0.000359  -0.000765  -0.000813  -0.000024
     18       0.392550   0.200051  -0.226772   0.051670   0.091771   0.000146
     19      -0.036434  -0.593966   0.657465  -0.162519  -0.274747   0.000922
     20       0.000112  -0.000662   0.000725  -0.000187  -0.000319  -0.000054
     21       0.336480   0.593851   0.490922   0.157965  -0.202783   0.000290
     22      -0.198351   0.420878   0.342420   0.115987  -0.144381   0.000783
     23       0.000337   0.000657   0.000535   0.000187  -0.000230  -0.000035
     24       0.332501  -0.150705  -0.189611   0.541000  -0.446523  -0.008701
     25       0.098095   0.131431   0.166139  -0.486629   0.401985   0.004723
     26      -0.000010  -0.000157  -0.000213   0.000630  -0.000503  -0.000006
     27       0.462705   0.001823  -0.002054  -0.006432  -0.005522   0.306607
     28      -0.149570  -0.000778  -0.005730   0.003477  -0.015839   0.948687
     29       0.001462  -0.000006  -0.000006   0.000009   0.000018  -0.002010


-----------
IR SPECTRUM
-----------

 Mode    freq (cm**-1)   T**2         TX         TY         TZ
-------------------------------------------------------------------
   6:       553.62  161.221788  ( -0.011648   0.145489  12.696475)
   7:       650.46    0.051602  ( -0.071107   0.031105   0.213492)
   8:       669.99    1.281932  (  0.014097  -0.062159  -1.130429)
   9:       753.76   68.073035  (  0.136877  -0.071174  -8.249196)
  10:       762.10  162.905285  (  0.130870   0.109301  12.762296)
  11:       893.00    0.006259  (  0.051377  -0.007153   0.059733)
  12:       898.99    2.719589  (  1.562945  -0.524843   0.036493)
  13:       920.90    1.067857  ( -0.328455  -0.978911   0.041332)
  14:       922.97    0.033013  (  0.167839   0.009412  -0.068949)
  15:      1060.87   68.269884  (  2.418319   7.900718  -0.016554)
  16:      1097.23   64.989371  ( -7.698272   2.392863  -0.013684)
  17:      1122.24   22.624407  ( -1.657590  -4.458340  -0.002946)
  18:      1170.75   12.934844  ( -3.402178   1.165646  -0.036052)
  19:      1220.49    4.008396  ( -0.606409  -1.908052   0.001475)
  20:      1348.02    4.697042  (  2.069151  -0.644621   0.010877)
  21:      1482.79    6.659149  (  0.758456   2.466373  -0.029936)
  22:      1513.19   11.845699  ( -3.289625   1.011778  -0.019219)
  23:      1565.53   15.724948  (  1.135640   3.799304  -0.023595)
  24:      1626.01    8.238448  (  2.740673  -0.852690   0.008814)
  25:      3320.79    4.065672  ( -1.902901   0.666809   0.001912)
  26:      3332.27    0.641186  ( -0.046037  -0.799186   0.019174)
  27:      3352.70    0.219891  (  0.433013  -0.179966   0.001726)
  28:      3355.99    0.123232  (  0.054644   0.346758   0.002298)
  29:      3724.62  257.920897  (  4.974560  15.270057  -0.001413)

The first frequency considered to be a vibration is 6
The total number of vibrations considered is 24


--------------------------
THERMOCHEMISTRY AT 298.15K
--------------------------

Temperature         ... 298.15 K
Pressure            ... 1.00 atm
Total Mass          ... 67.09 AMU

Throughout the following assumptions are being made:
  (1) The electronic state is orbitally nondegenerate
  (2) There are no thermally accessible electronically excited states
  (3) Hindered rotations indicated by low frequency modes are not
      treated as such but are treated as vibrations and this may
      cause some error
  (4) All equations used are the standard statistical mechanics
      equations for an ideal gas
  (5) All vibrations are strictly harmonic

freq.     553.62  E(vib)   ...       0.12 
freq.     650.46  E(vib)   ...       0.08 
freq.     669.99  E(vib)   ...       0.08 
freq.     753.76  E(vib)   ...       0.06 
freq.     762.10  E(vib)   ...       0.06 
freq.     893.00  E(vib)   ...       0.03 
freq.     898.99  E(vib)   ...       0.03 
freq.     920.90  E(vib)   ...       0.03 
freq.     922.97  E(vib)   ...       0.03 
freq.    1060.87  E(vib)   ...       0.02 
freq.    1097.23  E(vib)   ...       0.02 
freq.    1122.24  E(vib)   ...       0.01 
freq.    1170.75  E(vib)   ...       0.01 
freq.    1220.49  E(vib)   ...       0.01 
freq.    1348.02  E(vib)   ...       0.01 
freq.    1482.79  E(vib)   ...       0.00 
freq.    1513.19  E(vib)   ...       0.00 
freq.    1565.53  E(vib)   ...       0.00 
freq.    1626.01  E(vib)   ...       0.00 
freq.    3320.79  E(vib)   ...       0.00 
freq.    3332.27  E(vib)   ...       0.00 
freq.    3352.70  E(vib)   ...       0.00 
freq.    3355.99  E(vib)   ...       0.00 
freq.    3724.62  E(vib)   ...       0.00 

------------
INNER ENERGY
------------

The inner energy is: U= E(el) + E(ZPE) + E(vib) + E(rot) + E(trans)
    E(el)   - is the total energy from the electronic structure calculation
              = E(kin-el) + E(nuc-el) + E(el-el) + E(nuc-nuc)
    E(ZPE)  - the the zero temperature vibrational energy from the frequency calculation
    E(vib)  - the the finite temperature correction to E(ZPE) due to population
              of excited vibrational states
    E(rot)  - is the rotational thermal energy
    E(trans)- is the translational thermal energy

Summary of contributions to the inner energy U:
Electronic energy                ...   -209.71270730 Eh
Zero point energy                ...      0.08501959 Eh      53.35 kcal/mol
Thermal vibrational correction   ...      0.00097610 Eh       0.61 kcal/mol
Thermal rotational correction    ...      0.00141627 Eh       0.89 kcal/mol
Thermal translational correction ...      0.00141627 Eh       0.89 kcal/mol
-----------------------------------------------------------------------
Total thermal energy                   -209.62387907 Eh


Summary of corrections to the electronic energy:
(perhaps to be used in another calculation)
Total thermal correction                  0.00380865 Eh       2.39 kcal/mol
Non-thermal (ZPE) correction              0.08501959 Eh      53.35 kcal/mol
-----------------------------------------------------------------------
Total correction                          0.08882824 Eh      55.74 kcal/mol


--------
ENTHALPY
--------

The enthalpy is H = U + kB*T
                kB is Boltzmann's constant
Total free energy                 ...   -209.62387907 Eh 
Thermal Enthalpy correction       ...      0.00094421 Eh       0.59 kcal/mol
-----------------------------------------------------------------------
Total Enthalpy                    ...   -209.62293486 Eh


Vibrational entropy computed according to the QRRHO of S. Grimme
Chem.Eur.J. 2012 18 9955


-------
ENTROPY
-------

The entropy contributions are T*S = T*(S(el)+S(vib)+S(rot)+S(trans)
     S(el)   - electronic entropy
     S(vib)  - vibrational entropy
     S(rot)  - rotational entropy
     S(trans)- translational entropy
The entropies will be listed as mutliplied by the temperature to get
units of energy

Electronic entropy                ...      0.00000000 Eh      0.00 kcal/mol
Vibrational entropy               ...      0.00124554 Eh      0.78 kcal/mol
Rotational entropy                ...      0.01047676 Eh      6.57 kcal/mol
Translational entropy             ...      0.01830598 Eh     11.49 kcal/mol
-----------------------------------------------------------------------
Final entropy term                ...      0.03002828 Eh     18.84 kcal/mol


CAUTION: The rotational entropy is not quite correctly treated here
         because it includes a symmetry number that is not yet correctly
         implemented in ORCA!
For a nonlinear molecule the correct rotational entropy is:
    S(rot) = R*(ln(qrot/sn)+1.5)
    R    = 8.31441 J/mol/K = 1.987191683e-3 kcal/mol/K
    qrot = 44123.3279862
    sn is the rotational symmetry number. We have assumed 3 here
       if it is different for your molecule then you should correct
       the printed rotational entropy by manually evaluating the equation
       as given above

For convenience we print out the resulting values for sn=1 - 12:
 sn= 1  qrot/sn=   44123.3280 T*S(rot)=     7.23 kcal/mol T*S(tot)=    19.49 kcal/mol
 sn= 2  qrot/sn=   22061.6640 T*S(rot)=     6.81 kcal/mol T*S(tot)=    19.08 kcal/mol
 sn= 3  qrot/sn=   14707.7760 T*S(rot)=     6.57 kcal/mol T*S(tot)=    18.84 kcal/mol
 sn= 4  qrot/sn=   11030.8320 T*S(rot)=     6.40 kcal/mol T*S(tot)=    18.67 kcal/mol
 sn= 5  qrot/sn=    8824.6656 T*S(rot)=     6.27 kcal/mol T*S(tot)=    18.54 kcal/mol
 sn= 6  qrot/sn=    7353.8880 T*S(rot)=     6.16 kcal/mol T*S(tot)=    18.43 kcal/mol
 sn= 7  qrot/sn=    6303.3326 T*S(rot)=     6.07 kcal/mol T*S(tot)=    18.34 kcal/mol
 sn= 8  qrot/sn=    5515.4160 T*S(rot)=     5.99 kcal/mol T*S(tot)=    18.26 kcal/mol
 sn= 9  qrot/sn=    4902.5920 T*S(rot)=     5.92 kcal/mol T*S(tot)=    18.19 kcal/mol
 sn=10  qrot/sn=    4412.3328 T*S(rot)=     5.86 kcal/mol T*S(tot)=    18.13 kcal/mol
 sn=11  qrot/sn=    4011.2116 T*S(rot)=     5.80 kcal/mol T*S(tot)=    18.07 kcal/mol
 sn=12  qrot/sn=    3676.9440 T*S(rot)=     5.75 kcal/mol T*S(tot)=    18.02 kcal/mol


-------------------
GIBBS FREE ENTHALPY
-------------------

The Gibbs free enthalpy is G = H - T*S

Total enthalpy                    ...   -209.62293486 Eh 
Total entropy correction          ...     -0.03002828 Eh    -18.84 kcal/mol
-----------------------------------------------------------------------
Final Gibbs free enthalpy         ...   -209.65296313 Eh

For completeness - the Gibbs free enthalpy minus the electronic energy
G-E(el)                           ...      0.05974417 Eh     37.49 kcal/mol


Total Time for Numerical Frequencies  :       285.259 sec

Timings for individual modules:

Sum of individual times         ...       47.971 sec (=   0.800 min)
GTO integral calculation        ...        2.548 sec (=   0.042 min)   5.3 %
SCF iterations                  ...       32.519 sec (=   0.542 min)  67.8 %
SCF Gradient evaluation         ...       12.802 sec (=   0.213 min)  26.7 %
Geometry relaxation             ...        0.103 sec (=   0.002 min)   0.2 %
                             ****ORCA TERMINATED NORMALLY****
TOTAL RUN TIME: 0 days 0 hours 5 minutes 28 seconds 551 msec
