
                                 *****************
                                 * O   R   C   A *
                                 *****************

           --- An Ab Initio, DFT and Semiempirical electronic structure package ---

                  #######################################################
                  #                        -***-                        #
                  #  Department of molecular theory and spectroscopy    #
                  #              Directorship: Frank Neese              #
                  # Max Planck Institute for Chemical Energy Conversion #
                  #                  D-45470 Muelheim/Ruhr              #
                  #                       Germany                       #
                  #                                                     #
                  #                  All rights reserved                #
                  #                        -***-                        #
                  #######################################################


                         Program Version 4.0.1.2 - RELEASE -


 With contributions from (in alphabetic order):
   Daniel Aravena         : Magnetic Properties
   Michael Atanasov       : Ab Initio Ligand Field Theory
   Ute Becker             : Parallelization
   Martin Brehm           : Molecular dynamics
   Dmytro Bykov           : SCF Hessian
   Vijay G. Chilkuri      : MRCI spin determinant printing
   Dipayan Datta          : RHF DLPNO-CCSD density
   Achintya Kumar Dutta   : EOM-CC, STEOM-CC
   Dmitry Ganyushin       : Spin-Orbit,Spin-Spin,Magnetic field MRCI
   Yang Guo               : DLPNO-NEVPT2, CIM, IAO-localization
   Andreas Hansen         : Spin unrestricted coupled pair/coupled cluster methods
   Lee Huntington         : MR-EOM, pCC
   Robert Izsak           : Overlap fitted RIJCOSX, COSX-SCS-MP3, EOM
   Christian Kollmar      : KDIIS, OOCD, Brueckner-CCSD(T), CCSD density
   Simone Kossmann        : Meta GGA functionals, TD-DFT gradient, OOMP2, MP2 Hessian
   Martin Krupicka        : AUTO-CI
   Dagmar Lenk            : GEPOL surface
   Dimitrios Liakos       : Extrapolation schemes; parallel MDCI
   Dimitrios Manganas     : ROCIS; embedding schemes
   Dimitrios Pantazis     : SARC Basis sets
   Taras Petrenko         : DFT Hessian,TD-DFT gradient, ASA, ECA, R-Raman, ABS, FL, XAS/XES, NRVS
   Peter Pinski           : DLPNO-MP2
   Christoph Reimann      : Effective Core Potentials
   Marius Retegan         : Local ZFS, SOC
   Christoph Riplinger    : Optimizer, TS searches, QM/MM, DLPNO-CCSD(T), (RO)-DLPNO pert. Triples
   Tobias Risthaus        : Range-separated hybrids, TD-DFT gradient, RPA, STAB
   Michael Roemelt        : Restricted open shell CIS
   Masaaki Saitow         : Open-shell DLPNO
   Barbara Sandhoefer     : DKH picture change effects
   Kantharuban Sivalingam : CASSCF convergence, NEVPT2, FIC-MRCI
   Georgi Stoychev        : AutoAux
   Boris Wezisla          : Elementary symmetry handling
   Frank Wennmohs         : Technical directorship


 We gratefully acknowledge several colleagues who have allowed us to
 interface, adapt or use parts of their codes:
   Stefan Grimme, W. Hujo, H. Kruse,             : VdW corrections, initial TS optimization,
                  C. Bannwarth                     DFT functionals, gCP, sTDA/sTD-DF
   Ed Valeev                                     : LibInt (2-el integral package), F12 methods
   Garnet Chan, S. Sharma, J. Yang, R. Olivares  : DMRG
   Ulf Ekstrom                                   : XCFun DFT Library
   Mihaly Kallay                                 : mrcc  (arbitrary order and MRCC methods)
   Andreas Klamt, Michael Diedenhofen            : otool_cosmo (COSMO solvation model)
   Jiri Pittner, Ondrej Demel                    : Mk-CCSD
   Frank Weinhold                                : gennbo (NPA and NBO analysis)
   Christopher J. Cramer and Donald G. Truhlar   : smd solvation model


 Your calculation uses the libint2 library for the computation of 2-el integrals
 For citations please refer to: http://libint.valeyev.net

 This ORCA versions uses:
   CBLAS   interface :  Fast vector & matrix operations
   LAPACKE interface :  Fast linear algebra routines
   SCALAPACK package :  Parallel linear algebra routines


Your calculation utilizes the geometrical counterpoise correction gCP
Please cite in your paper:
H.Kruse, S. Grimme J.Chem.Phys., 136, (2012), 154101 
   

Your calculation utilizes the atom-pairwise dispersion correction
with the Becke-Johnson damping scheme (D3BJ)
Cite in your paper:
S.Grimme, S.Ehrlich, L.Goerigk, J Comput Chem, (2011), 32, 1456–1465 
S.Grimme, J.Antony, S.Ehrlich and H.Krieg, J.Chem.Phys., 132, (2010), 154104 
   

Your calculation employs the composite approach PBEh-3c.
Please cite in your paper:
S. Grimme, J. G. Brandenburg, C. Bannwarth, A. Hansen J.Chem.Phys., 143, (2015), 054107 
   

Your calculation utilizes the SMD solvation module
Please cite in your paper:
A.V. Marenich, C.J. Cramer, D.G. Truhlar J. Phys. Chem. B, 113, (2009), 6378 

Your calculation utilizes the basis: def2-mSVP

Your calculation utilizes the auxiliary basis: def2/J
   F. Weigend, Phys. Chem. Chem. Phys. 8, 1057 (2006).

================================================================================
                                        WARNINGS
                       Please study these warnings very carefully!
================================================================================

Warning: TCutStore was < 0. Adjusted to Thresh (uncritical)

WARNING: Split-RI-J cannot be used together with RIJONX
  ===> : Split-RI-J will be disabled

WARNING: The environment variable RSH_COMMAND is not set!
  ===> : All Displacements for the Numerical Hessian calculation
         will be started on localhost

WARNING: Evaluation of Numerical Hessian with CPCM may lead to unreliable numbers

WARNING: Geometry Optimization
  ===> : Switching off AutoStart
         For restart on a previous wavefunction, please use MOREAD

INFO   : the flag for use of LIBINT has been found!

================================================================================
                                       INPUT FILE
================================================================================
NAME = pyrrolate@water.inp
|  1> # pyrrolate.xyz
|  2> ! PBEh3c Opt NumFreq CPCM
|  3> %cpcm
|  4>  smd true
|  5>  solvent "WATER"
|  6> end
|  7> 
|  8> * xyz -1 1
|  9> C       -1.114681038      0.000000000      0.362861461
| 10> C       -0.708476572      0.000000000     -0.945114313
| 11> C        0.708476572      0.000000000     -0.945114313
| 12> C        1.114681038      0.000000000      0.362861461
| 13> N        0.000000000      0.000000000      1.144164961
| 14> H       -2.102667851      0.000000000      0.791353672
| 15> H       -1.354836716      0.000000000     -1.807280826
| 16> H        1.354836716      0.000000000     -1.807280826
| 17> H        2.102667851      0.000000000      0.791353672
| 18> *
| 19> %pal
| 20>  nprocs 4
| 21> end
| 22> 
| 23>                          ****END OF INPUT****
================================================================================

                       *****************************
                       * Geometry Optimization Run *
                       *****************************

Geometry optimization settings:
Update method            Update   .... BFGS
Choice of coordinates    CoordSys .... Redundant Internals
Initial Hessian          InHess   .... Almoef's Model

Convergence Tolerances:
Energy Change            TolE     ....  5.0000e-06 Eh
Max. Gradient            TolMAXG  ....  3.0000e-04 Eh/bohr
RMS Gradient             TolRMSG  ....  1.0000e-04 Eh/bohr
Max. Displacement        TolMAXD  ....  4.0000e-03 bohr
RMS Displacement         TolRMSD  ....  2.0000e-03 bohr

------------------------------------------------------------------------------
                        ORCA OPTIMIZATION COORDINATE SETUP
------------------------------------------------------------------------------

The optimization will be done in new redundant internal coordinates
Making redundant internal coordinates   ...  (new redundants) done
Evaluating the initial hessian          ...  (Almloef) done
Evaluating the coordinates              ...  done
Calculating the B-matrix                .... done
Calculating the G-matrix                .... done
Diagonalizing the G-matrix              .... done
The first mode is                       ....   17
The number of degrees of freedom        ....   21

    -----------------------------------------------------------------
                    Redundant Internal Coordinates


    -----------------------------------------------------------------
         Definition                    Initial Value    Approx d2E/dq
    -----------------------------------------------------------------
      1. B(C   1,C   0)                  1.3696         0.673420   
      2. B(C   2,C   1)                  1.4170         0.565896   
      3. B(C   3,C   2)                  1.3696         0.673420   
      4. B(N   4,C   3)                  1.3612         0.621978   
      5. B(N   4,C   0)                  1.3612         0.621978   
      6. B(H   5,C   0)                  1.0769         0.377847   
      7. B(H   6,C   1)                  1.0775         0.376953   
      8. B(H   7,C   2)                  1.0775         0.376953   
      9. B(H   8,C   3)                  1.0769         0.377847   
     10. A(C   1,C   0,H   5)          130.6992         0.360836   
     11. A(C   1,C   0,N   4)          107.7747         0.437940   
     12. A(N   4,C   0,H   5)          121.5261         0.353794   
     13. A(C   0,C   1,H   6)          125.8887         0.360690   
     14. A(C   0,C   1,C   2)          107.2527         0.433390   
     15. A(C   2,C   1,H   6)          126.8586         0.350201   
     16. A(C   3,C   2,H   7)          125.8887         0.360690   
     17. A(C   1,C   2,H   7)          126.8586         0.350201   
     18. A(C   1,C   2,C   3)          107.2527         0.433390   
     19. A(N   4,C   3,H   8)          121.5261         0.353794   
     20. A(C   2,C   3,H   8)          130.6992         0.360836   
     21. A(C   2,C   3,N   4)          107.7747         0.437940   
     22. A(C   0,N   4,C   3)          109.9451         0.428900   
     23. D(C   2,C   1,C   0,N   4)      0.0000         0.031741   
     24. D(H   6,C   1,C   0,N   4)    180.0000         0.031741   
     25. D(H   6,C   1,C   0,H   5)      0.0000         0.031741   
     26. D(C   2,C   1,C   0,H   5)    180.0000         0.031741   
     27. D(C   3,C   2,C   1,H   6)    180.0000         0.021954   
     28. D(H   7,C   2,C   1,C   0)    180.0000         0.021954   
     29. D(C   3,C   2,C   1,C   0)      0.0000         0.021954   
     30. D(H   7,C   2,C   1,H   6)      0.0000         0.021954   
     31. D(H   8,C   3,C   2,H   7)      0.0000         0.031741   
     32. D(H   8,C   3,C   2,C   1)    180.0000         0.031741   
     33. D(N   4,C   3,C   2,H   7)    180.0000         0.031741   
     34. D(N   4,C   3,C   2,C   1)      0.0000         0.031741   
     35. D(C   0,N   4,C   3,C   2)      0.0000         0.028396   
     36. D(C   3,N   4,C   0,H   5)    180.0000         0.028396   
     37. D(C   3,N   4,C   0,C   1)      0.0000         0.028396   
     38. D(C   0,N   4,C   3,H   8)    180.0000         0.028396   
    -----------------------------------------------------------------

Number of atoms                         .... 9
Number of degrees of freedom            .... 38

         *************************************************************
         *                GEOMETRY OPTIMIZATION CYCLE   1            *
         *************************************************************
---------------------------------
CARTESIAN COORDINATES (ANGSTROEM)
---------------------------------
  C     -1.114681    0.000000    0.362861
  C     -0.708477    0.000000   -0.945114
  C      0.708477    0.000000   -0.945114
  C      1.114681    0.000000    0.362861
  N      0.000000    0.000000    1.144165
  H     -2.102668    0.000000    0.791354
  H     -1.354837    0.000000   -1.807281
  H      1.354837    0.000000   -1.807281
  H      2.102668    0.000000    0.791354

----------------------------
CARTESIAN COORDINATES (A.U.)
----------------------------
  NO LB      ZA    FRAG     MASS         X           Y           Z
   0 C     6.0000    0    12.011   -2.106442    0.000000    0.685709
   1 C     6.0000    0    12.011   -1.338827    0.000000   -1.786007
   2 C     6.0000    0    12.011    1.338827    0.000000   -1.786007
   3 C     6.0000    0    12.011    2.106442    0.000000    0.685709
   4 N     7.0000    0    14.007    0.000000    0.000000    2.162158
   5 H     1.0000    0     1.008   -3.973466    0.000000    1.495442
   6 H     1.0000    0     1.008   -2.560270    0.000000   -3.415266
   7 H     1.0000    0     1.008    2.560270    0.000000   -3.415266
   8 H     1.0000    0     1.008    3.973466    0.000000    1.495442

--------------------------------
INTERNAL COORDINATES (ANGSTROEM)
--------------------------------
 C      0   0   0     0.000000000000     0.00000000     0.00000000
 C      1   0   0     1.369599464650     0.00000000     0.00000000
 C      2   1   0     1.416953144000   107.25268451     0.00000000
 C      3   2   1     1.369599464650   107.25268451     0.00000000
 N      1   2   3     1.361230684193   107.77474133     0.00000000
 H      1   2   3     1.076904600022   130.69917588   180.00000085
 H      2   1   3     1.077549317614   125.88867935   180.00000000
 H      3   2   1     1.077549317614   126.85863615   180.00000000
 H      4   3   2     1.076904600022   130.69917588   180.00000085

---------------------------
INTERNAL COORDINATES (A.U.)
---------------------------
 C      0   0   0     0.000000000000     0.00000000     0.00000000
 C      1   0   0     2.588167901353     0.00000000     0.00000000
 C      2   1   0     2.677653386759   107.25268451     0.00000000
 C      3   2   1     2.588167901353   107.25268451     0.00000000
 N      1   2   3     2.572353198215   107.77474133     0.00000000
 H      1   2   3     2.035054766402   130.69917588   180.00000085
 H      2   1   3     2.036273106084   125.88867935   180.00000000
 H      3   2   1     2.036273106084   126.85863615   180.00000000
 H      4   3   2     2.035054766402   130.69917588   180.00000085

---------------------
BASIS SET INFORMATION
---------------------
There are 3 groups of distinct atoms

 Group   1 Type C   : 8s4p1d contracted to 4s2p1d pattern {5111/31/1}
 Group   2 Type N   : 8s4p1d contracted to 4s2p1d pattern {5111/31/1}
 Group   3 Type H   : 4s contracted to 2s pattern {31}

Atom   0C    basis set group =>   1
Atom   1C    basis set group =>   1
Atom   2C    basis set group =>   1
Atom   3C    basis set group =>   1
Atom   4N    basis set group =>   2
Atom   5H    basis set group =>   3
Atom   6H    basis set group =>   3
Atom   7H    basis set group =>   3
Atom   8H    basis set group =>   3
-------------------------------
AUXILIARY BASIS SET INFORMATION
-------------------------------
There are 3 groups of distinct atoms

 Group   1 Type C   : 12s5p4d2f1g contracted to 6s4p3d1f1g pattern {711111/2111/211/2/1}
 Group   2 Type N   : 12s5p4d2f1g contracted to 6s4p3d1f1g pattern {711111/2111/211/2/1}
 Group   3 Type H   : 5s2p1d contracted to 3s1p1d pattern {311/2/1}

Atom   0C    basis set group =>   1
Atom   1C    basis set group =>   1
Atom   2C    basis set group =>   1
Atom   3C    basis set group =>   1
Atom   4N    basis set group =>   2
Atom   5H    basis set group =>   3
Atom   6H    basis set group =>   3
Atom   7H    basis set group =>   3
Atom   8H    basis set group =>   3


           ************************************************************
           *        Program running with 4 parallel MPI-processes     *
           *              working on a common directory               *
           ************************************************************
------------------------------------------------------------------------------
                           ORCA GTO INTEGRAL CALCULATION
                           -- RI-GTO INTEGRALS CHOSEN --
------------------------------------------------------------------------------

                         BASIS SET STATISTICS AND STARTUP INFO

Gaussian basis set:
 # of primitive gaussian shells          ...   81
 # of primitive gaussian functions       ...  141
 # of contracted shells                  ...   43
 # of contracted basis functions         ...   83
 Highest angular momentum                ...    2
 Maximum contraction depth               ...    5
Auxiliary gaussian basis set:
 # of primitive gaussian shells          ...  152
 # of primitive gaussian functions       ...  414
 # of contracted shells                  ...   95
 # of contracted aux-basis functions     ...  289
 Highest angular momentum                ...    4
 Maximum contraction depth               ...    7
Ratio of auxiliary to basis functions    ...  3.48
Integral package used                  ... LIBINT
 One Electron integrals                  ... done
 Ordering auxiliary basis shells         ... done
 Integral threshhold             Thresh  ...  2.500e-11
 Primitive cut-off               TCut    ...  2.500e-12
 Pre-screening matrix                    ... done
 Shell pair data                         ... 
 Ordering of the shell pairs             ... done (   0.000 sec) 921 of 946 pairs
 Determination of significant pairs      ... done (   0.000 sec)
 Creation of shell pair data             ... done (   0.000 sec)
 Storage of shell pair data              ... done (   0.000 sec)
 Shell pair data done in (   0.001 sec)
 Computing two index integrals           ... done
 Cholesky decomposition of the V-matrix  ... done


Timings:
 Total evaluation time                   ...   0.195 sec (  0.003 min)
 One electron matrix time                ...   0.011 sec (  0.000 min) =  5.7%
 Schwartz matrix evaluation time         ...   0.159 sec (  0.003 min) = 81.2%
 Two index repulsion integral time       ...   0.003 sec (  0.000 min) =  1.5%
 Cholesky decomposition of V             ...   0.002 sec (  0.000 min) =  1.2%
 Three index repulsion integral time     ...   0.000 sec (  0.000 min) =  0.0%



           ************************************************************
           *        Program running with 4 parallel MPI-processes     *
           *              working on a common directory               *
           ************************************************************
-------------------------------------------------------------------------------
                                 ORCA SCF
-------------------------------------------------------------------------------

------------
SCF SETTINGS
------------
Hamiltonian:
 Density Functional     Method          .... DFT(GTOs)
 Exchange Functional    Exchange        .... PBE
   PBE kappa parameter   XKappa         ....  1.024500
   PBE mue parameter    XMuePBE         ....  0.123457
 Correlation Functional Correlation     .... PBE
   PBE beta parameter  CBetaPBE         ....  0.030000
 LDA part of GGA corr.  LDAOpt          .... PW91-LDA
 Gradients option       PostSCFGGA      .... off
 Hybrid DFT is turned on
   Fraction HF Exchange ScalHFX         ....  0.420000
   Scaling of DF-GGA-X  ScalDFX         ....  0.580000
   Scaling of DF-GGA-C  ScalDFC         ....  1.000000
   Scaling of DF-LDA-C  ScalLDAC        ....  1.000000
   Perturbative correction              ....  0.000000
 RI-approximation to the Coulomb term is turned on
   Number of auxiliary basis functions  .... 289
   RIJ-ON(X) (HFX calculated with O(N)) .... on


General Settings:
 Integral files         IntName         .... pyrrolate@water
 Hartree-Fock type      HFTyp           .... RHF
 Total Charge           Charge          ....   -1
 Multiplicity           Mult            ....    1
 Number of Electrons    NEL             ....   36
 Basis Dimension        Dim             ....   83
 Nuclear Repulsion      ENuc            ....    152.5052507848 Eh

Convergence Acceleration:
 DIIS                   CNVDIIS         .... on
   Start iteration      DIISMaxIt       ....    12
   Startup error        DIISStart       ....  0.200000
   # of expansion vecs  DIISMaxEq       ....     5
   Bias factor          DIISBfac        ....   1.050
   Max. coefficient     DIISMaxC        ....  10.000
 Newton-Raphson         CNVNR           .... off
 SOSCF                  CNVSOSCF        .... on
   Start iteration      SOSCFMaxIt      ....   150
   Startup grad/error   SOSCFStart      ....  0.003300
 Level Shifting         CNVShift        .... on
   Level shift para.    LevelShift      ....    0.2500
   Turn off err/grad.   ShiftErr        ....    0.0010
 Zerner damping         CNVZerner       .... off
 Static damping         CNVDamp         .... on
   Fraction old density DampFac         ....    0.7000
   Max. Damping (<1)    DampMax         ....    0.9800
   Min. Damping (>=0)   DampMin         ....    0.0000
   Turn off err/grad.   DampErr         ....    0.1000
 Fernandez-Rico         CNVRico         .... off

SCF Procedure:
 Maximum # iterations   MaxIter         ....   125
 SCF integral mode      SCFMode         .... Direct
   Integral package                     .... LIBINT
 Reset frequeny         DirectResetFreq ....    20
 Integral Threshold     Thresh          ....  2.500e-11 Eh
 Primitive CutOff       TCut            ....  2.500e-12 Eh

Convergence Tolerance:
 Convergence Check Mode ConvCheckMode   .... Total+1el-Energy
 Convergence forced     ConvForced      .... 0
 Energy Change          TolE            ....  1.000e-08 Eh
 1-El. energy change                    ....  1.000e-05 Eh
 Orbital Gradient       TolG            ....  1.000e-05
 Orbital Rotation angle TolX            ....  1.000e-05
 DIIS Error             TolErr          ....  5.000e-07


Diagonalization of the overlap matrix:
Smallest eigenvalue                        ... 1.162e-03
Time for diagonalization                   ...    0.002 sec
Threshold for overlap eigenvalues          ... 1.000e-08
Number of eigenvalues below threshold      ... 0
Time for construction of square roots      ...    0.001 sec
Total time needed                          ...    0.002 sec

--------------------------------
INITIAL GUESS: MINIMAL BASIS EHT
--------------------------------
The minimal basis has 29 functions
EHT matrix was diagonalized
Basis set overlap was calculated now projecting the orbitals
Using GuessMode=FMatrix for the initial guess
C*T matrix was formed
Effective Fockian was calculated
Effective Fockian was diagonalized
Initial density was built
                      ------------------
                      INITIAL GUESS DONE
                      ------------------
-------------------
DFT GRID GENERATION
-------------------

General Integration Accuracy     IntAcc      ...  4.340
Radial Grid Type                 RadialGrid  ... Gauss-Chebyshev
Angular Grid (max. acc.)         AngularGrid ... Lebedev-194
Angular grid pruning method      GridPruning ... 3 (G Style)
Weight generation scheme         WeightScheme... Becke
Basis function cutoff            BFCut       ...    1.0000e-11
Integration weight cutoff        WCut        ...    1.0000e-14
Grids for H and He will be reduced by one unit

# of grid points (after initial pruning)     ...  22550 (   0.0 sec)
# of grid points (after weights+screening)   ...  21329 (   0.0 sec)
nearest neighbour list constructed           ...    0.0 sec
Grid point re-assignment to atoms done       ...    0.0 sec
Grid point division into batches done        ...    0.1 sec
Reduced shell lists constructed in    0.1 sec

Total number of grid points                  ...    21329
Total number of batches                      ...      337
Average number of points per batch           ...       63
Average number of grid points per atom       ...     2370
Average number of shells per batch           ...    36.20 (84.18%)
Average number of basis functions per batch  ...    75.73 (91.24%)
Average number of large shells per batch     ...    32.84 (90.72%)
Average number of large basis fcns per batch ...    71.44 (94.33%)
Maximum spatial batch extension              ...   3.45, 22.15,  3.35 au
Average spatial batch extension              ...   0.39,  0.76,  0.39 au

Time for grid setup =    0.115 sec


------------------------------------------------------------------------------
                           CPCM SOLVATION MODEL                               
------------------------------------------------------------------------------
CPCM parameters:
  Epsilon                                         ...      78.3550
  Refrac                                          ...       1.3300
  Rsolv                                           ...       1.3000
  Surface type                                    ...    GEPOL SES
  Epsilon function type                           ...         CPCM
Solvent:                                     ... WATER
SMD-CDS solvent descriptors:
  Soln                                       ...    1.3328
  Soln25                                     ...    1.3323
  Sola                                       ...    0.0000
  Solb                                       ...    0.0000
  Solg                                       ...    0.0000
  Solc                                       ...    0.0000
  Solh                                       ...    0.0000
Radii:
 Radius for C  used is    3.4960 Bohr (=   1.8500 Ang.)
 Radius for N  used is    3.5716 Bohr (=   1.8900 Ang.)
 Radius for H  used is    2.2677 Bohr (=   1.2000 Ang.)
Calculating surface                               ...        done! (  0.0s)
GEPOL surface points                              ...          305
GEPOL Volume                                      ...     531.4816
GEPOL Surface-area                                ...     346.0934
Calculating surface distance matrix               ...        done! (  0.0s)
Performing Cholesky decomposition & store         ...        done! (  0.0s)
Overall time for CPCM initialization              ...                 0.0s
--------------
SCF ITERATIONS
--------------
ITER       Energy         Delta-E        Max-DP      RMS-DP      [F,P]     Damp
               ***  Starting incremental Fock matrix formation  ***
  0   -208.4503568734   0.000000000000 0.18710985  0.00909599  0.4794486 0.7000
  1   -208.7086946387  -0.258337765222 0.11910119  0.00578372  0.2954268 0.7000
  2   -208.8598532688  -0.151158630097 0.06281146  0.00364287  0.2062174 0.7000
                               ***Turning on DIIS***
  3   -208.9634976246  -0.103644355881 0.04245742  0.00247584  0.1439074 0.7000
  4   -209.0376572160  -0.074159591347 0.03474398  0.00184755  0.1004389 0.7000
  5   -209.0903898407  -0.052732624698 0.08344653  0.00450261  0.0704156 0.0000
  6   -209.2164164497  -0.126026608984 0.00387664  0.00023246  0.0038717 0.0000
                      *** Initiating the SOSCF procedure ***
                           *** Shutting down DIIS ***
                      *** Re-Reading the Fockian *** 
                      *** Removing any level shift *** 
ITER      Energy       Delta-E        Grad      Rot      Max-DP    RMS-DP
  7   -209.21651154  -0.0000950886  0.001099  0.001099  0.001864  0.000117
               *** Restarting incremental Fock matrix formation ***
  8   -209.21652765  -0.0000161155  0.000432  0.001197  0.001613  0.000076
  9   -209.21653015  -0.0000024915  0.000363  0.000349  0.000789  0.000042
 10   -209.21653196  -0.0000018109  0.000053  0.000102  0.000240  0.000010
 11   -209.21653199  -0.0000000320  0.000048  0.000070  0.000057  0.000003
 12   -209.21653201  -0.0000000262  0.000006  0.000012  0.000036  0.000001
                  ***Gradient check signals convergence***
              ***Rediagonalizing the Fockian in SOSCF/NRSCF***

               *****************************************************
               *                     SUCCESS                       *
               *           SCF CONVERGED AFTER  13 CYCLES          *
               *****************************************************


SMD CDS free energy correction energy :                 0.98500     Kcal/mol
Total Energy after SMD CDS correction =              -209.214962317 Eh

----------------
TOTAL SCF ENERGY
----------------

Total Energy       :         -209.21496232 Eh           -5693.02855 eV

Components:
Nuclear Repulsion  :          152.50525078 Eh            4149.87885 eV
Electronic Energy  :         -361.72021310 Eh           -9842.90740 eV
One Electron Energy:         -592.57634843 Eh          -16124.82221 eV
Two Electron Energy:          230.85613533 Eh            6281.91481 eV
CPCM Dielectric    :           -0.11086999 Eh              -3.01693 eV
SMD CDS (Gcds)     :            0.00156970 Eh               0.04271 eV

Virial components:
Potential Energy   :         -416.92953493 Eh          -11345.22943 eV
Kinetic Energy     :          207.71457262 Eh            5652.20087 eV
Virial Ratio       :            2.00722332


DFT components:
N(Alpha)           :       17.999517915072 electrons
N(Beta)            :       17.999517915072 electrons
N(Total)           :       35.999035830143 electrons
E(X)               :      -16.197635090169 Eh       
E(C)               :       -1.564667188690 Eh       
E(XC)              :      -17.762302278859 Eh       
CPCM Solvation Model Properties:
Surface-charge          :            0.96967278
Charge-correction       :           -0.00535958 Eh              -0.14584 eV
Free-energy (cav+disp)  :            0.00314981 Eh               0.08571 eV
Corrected G(solv)       :         -209.21717209 Eh           -5693.08868 eV

---------------
SCF CONVERGENCE
---------------

  Last Energy change         ...   -2.2851e-11  Tolerance :   1.0000e-08
  Last MAX-Density change    ...    4.5424e-06  Tolerance :   1.0000e-07
  Last RMS-Density change    ...    2.0492e-07  Tolerance :   5.0000e-09
  Last Orbital Gradient      ...    1.9735e-06  Tolerance :   1.0000e-05
  Last Orbital Rotation      ...    2.3038e-06  Tolerance :   1.0000e-05

             **** THE GBW FILE WAS UPDATED (pyrrolate@water.gbw) ****
             **** DENSITY FILE WAS UPDATED (pyrrolate@water.scfp.tmp) ****
             **** ENERGY FILE WAS UPDATED (pyrrolate@water.en.tmp) ****
----------------
ORBITAL ENERGIES
----------------

  NO   OCC          E(Eh)            E(eV) 
   0   2.0000     -14.560046      -396.1990 
   1   2.0000     -10.402832      -283.0754 
   2   2.0000     -10.402768      -283.0737 
   3   2.0000     -10.383551      -282.5508 
   4   2.0000     -10.383084      -282.5381 
   5   2.0000      -0.990583       -26.9551 
   6   2.0000      -0.780986       -21.2517 
   7   2.0000      -0.754011       -20.5177 
   8   2.0000      -0.581615       -15.8265 
   9   2.0000      -0.573562       -15.6074 
  10   2.0000      -0.527320       -14.3491 
  11   2.0000      -0.418593       -11.3905 
  12   2.0000      -0.405696       -11.0395 
  13   2.0000      -0.402914       -10.9639 
  14   2.0000      -0.393769       -10.7150 
  15   2.0000      -0.262537        -7.1440 
  16   2.0000      -0.226782        -6.1711 
  17   2.0000      -0.217365        -5.9148 
  18   0.0000       0.134092         3.6488 
  19   0.0000       0.139115         3.7855 
  20   0.0000       0.213687         5.8147 
  21   0.0000       0.251683         6.8486 
  22   0.0000       0.253488         6.8978 
  23   0.0000       0.263773         7.1776 
  24   0.0000       0.287759         7.8303 
  25   0.0000       0.307920         8.3789 
  26   0.0000       0.362969         9.8769 
  27   0.0000       0.393884        10.7181 
  28   0.0000       0.557543        15.1715 
  29   0.0000       0.573658        15.6100 
  30   0.0000       0.596180        16.2229 
  31   0.0000       0.605569        16.4784 
  32   0.0000       0.634129        17.2555 
  33   0.0000       0.663418        18.0525 
  34   0.0000       0.685142        18.6437 
  35   0.0000       0.689340        18.7579 
  36   0.0000       0.703450        19.1418 
  37   0.0000       0.740633        20.1536 
  38   0.0000       0.752706        20.4822 
  39   0.0000       0.844924        22.9916 
  40   0.0000       0.934750        25.4358 
  41   0.0000       0.935894        25.4670 
  42   0.0000       0.955681        26.0054 
  43   0.0000       0.965156        26.2632 
  44   0.0000       0.985661        26.8212 
  45   0.0000       1.039840        28.2955 
  46   0.0000       1.070186        29.1213 
  47   0.0000       1.083228        29.4761 
  48   0.0000       1.160338        31.5744 
  49   0.0000       1.184969        32.2446 
  50   0.0000       1.332304        36.2538 
  51   0.0000       1.381117        37.5821 
  52   0.0000       1.456081        39.6220 
  53   0.0000       1.488856        40.5138 
  54   0.0000       1.492552        40.6144 
  55   0.0000       1.643870        44.7320 
  56   0.0000       1.659137        45.1474 
  57   0.0000       1.696351        46.1601 
  58   0.0000       1.781303        48.4717 
  59   0.0000       1.972090        53.6633 
  60   0.0000       2.093704        56.9726 
  61   0.0000       2.138904        58.2025 
  62   0.0000       2.142867        58.3104 
  63   0.0000       2.218408        60.3659 
  64   0.0000       2.341771        63.7228 
  65   0.0000       2.359097        64.1943 
  66   0.0000       2.388184        64.9858 
  67   0.0000       2.394697        65.1630 
  68   0.0000       2.436850        66.3101 
  69   0.0000       2.500415        68.0398 
  70   0.0000       2.631391        71.6038 
  71   0.0000       2.708515        73.7024 
  72   0.0000       2.721264        74.0494 
  73   0.0000       2.784879        75.7804 
  74   0.0000       2.858329        77.7791 
  75   0.0000       3.116554        84.8058 
  76   0.0000       3.123381        84.9915 
  77   0.0000       3.172089        86.3169 
  78   0.0000      13.431189       365.4812 
  79   0.0000      13.763909       374.5350 
  80   0.0000      14.057621       382.5273 
  81   0.0000      14.367406       390.9570 
  82   0.0000      19.396020       527.7925 

                    ********************************
                    * MULLIKEN POPULATION ANALYSIS *
                    ********************************

-----------------------
MULLIKEN ATOMIC CHARGES
-----------------------
   0 C :   -0.221472
   1 C :   -0.412245
   2 C :   -0.413921
   3 C :   -0.220853
   4 N :   -0.504221
   5 H :    0.197322
   6 H :    0.188884
   7 H :    0.189034
   8 H :    0.197471
Sum of atomic charges:   -1.0000000

--------------------------------
MULLIKEN REDUCED ORBITAL CHARGES
--------------------------------
  0 C s       :     3.180594  s :     3.180594
      pz      :     0.915964  p :     2.982996
      px      :     0.925564
      py      :     1.141468
      dz2     :     0.013504  d :     0.057881
      dxz     :     0.019895
      dyz     :     0.009952
      dx2y2   :     0.009762
      dxy     :     0.004768
  1 C s       :     3.233944  s :     3.233944
      pz      :     0.999363  p :     3.137378
      px      :     0.953638
      py      :     1.184377
      dz2     :     0.010387  d :     0.040923
      dxz     :     0.013977
      dyz     :     0.005006
      dx2y2   :     0.005244
      dxy     :     0.006309
  2 C s       :     3.234049  s :     3.234049
      pz      :     0.999929  p :     3.138945
      px      :     0.953924
      py      :     1.185092
      dz2     :     0.010385  d :     0.040927
      dxz     :     0.013983
      dyz     :     0.005006
      dx2y2   :     0.005243
      dxy     :     0.006310
  3 C s       :     3.180076  s :     3.180076
      pz      :     0.916174  p :     2.982898
      px      :     0.925563
      py      :     1.141161
      dz2     :     0.013504  d :     0.057879
      dxz     :     0.019893
      dyz     :     0.009952
      dx2y2   :     0.009764
      dxy     :     0.004765
  4 N s       :     3.545745  s :     3.545745
      pz      :     1.633166  p :     3.917651
      px      :     1.003402
      py      :     1.281083
      dz2     :     0.005812  d :     0.040824
      dxz     :     0.015817
      dyz     :     0.005824
      dx2y2   :     0.004446
      dxy     :     0.008926
  5 H s       :     0.802678  s :     0.802678
  6 H s       :     0.811116  s :     0.811116
  7 H s       :     0.810966  s :     0.810966
  8 H s       :     0.802529  s :     0.802529


                     *******************************
                     * LOEWDIN POPULATION ANALYSIS *
                     *******************************

----------------------
LOEWDIN ATOMIC CHARGES
----------------------
   0 C :   -0.239438
   1 C :   -0.313899
   2 C :   -0.314461
   3 C :   -0.239267
   4 N :   -0.337298
   5 H :    0.109989
   6 H :    0.112236
   7 H :    0.112173
   8 H :    0.109965

-------------------------------
LOEWDIN REDUCED ORBITAL CHARGES
-------------------------------
  0 C s       :     2.891530  s :     2.891530
      pz      :     1.059317  p :     3.217319
      px      :     1.028264
      py      :     1.129737
      dz2     :     0.036271  d :     0.130589
      dxz     :     0.045852
      dyz     :     0.021646
      dx2y2   :     0.018940
      dxy     :     0.007880
  1 C s       :     2.903800  s :     2.903800
      pz      :     1.082049  p :     3.315159
      px      :     1.068344
      py      :     1.164766
      dz2     :     0.027458  d :     0.094941
      dxz     :     0.031913
      dyz     :     0.009989
      dx2y2   :     0.011872
      dxy     :     0.013708
  2 C s       :     2.903816  s :     2.903816
      pz      :     1.082057  p :     3.315710
      px      :     1.068409
      py      :     1.165243
      dz2     :     0.027454  d :     0.094936
      dxz     :     0.031919
      dyz     :     0.009988
      dx2y2   :     0.011868
      dxy     :     0.013706
  3 C s       :     2.891492  s :     2.891492
      pz      :     1.059358  p :     3.217178
      px      :     1.028272
      py      :     1.129548
      dz2     :     0.036276  d :     0.130598
      dxz     :     0.045848
      dyz     :     0.021652
      dx2y2   :     0.018944
      dxy     :     0.007879
  4 N s       :     3.215791  s :     3.215791
      pz      :     1.611034  p :     4.031146
      px      :     1.144730
      py      :     1.275382
      dz2     :     0.011572  d :     0.090361
      dxz     :     0.037512
      dyz     :     0.006824
      dx2y2   :     0.012401
      dxy     :     0.022052
  5 H s       :     0.890011  s :     0.890011
  6 H s       :     0.887764  s :     0.887764
  7 H s       :     0.887827  s :     0.887827
  8 H s       :     0.890035  s :     0.890035


                      *****************************
                      * MAYER POPULATION ANALYSIS *
                      *****************************

  NA   - Mulliken gross atomic population
  ZA   - Total nuclear charge
  QA   - Mulliken gross atomic charge
  VA   - Mayer's total valence
  BVA  - Mayer's bonded valence
  FA   - Mayer's free valence

  ATOM       NA         ZA         QA         VA         BVA        FA
  0 C      6.2215     6.0000    -0.2215     3.8537     3.8537     0.0000
  1 C      6.4122     6.0000    -0.4122     3.8128     3.8128    -0.0000
  2 C      6.4139     6.0000    -0.4139     3.8128     3.8128    -0.0000
  3 C      6.2209     6.0000    -0.2209     3.8537     3.8537    -0.0000
  4 N      7.5042     7.0000    -0.5042     3.0348     3.0348    -0.0000
  5 H      0.8027     1.0000     0.1973     0.9242     0.9242     0.0000
  6 H      0.8111     1.0000     0.1889     0.9257     0.9257    -0.0000
  7 H      0.8110     1.0000     0.1890     0.9257     0.9257     0.0000
  8 H      0.8025     1.0000     0.1975     0.9241     0.9241     0.0000

  Mayer bond orders larger than 0.1
B(  0-C ,  1-C ) :   1.4430 B(  0-C ,  4-N ) :   1.4596 B(  0-C ,  5-H ) :   0.9269 
B(  1-C ,  2-C ) :   1.4135 B(  1-C ,  6-H ) :   0.9215 B(  2-C ,  3-C ) :   1.4430 
B(  2-C ,  7-H ) :   0.9214 B(  3-C ,  4-N ) :   1.4596 B(  3-C ,  8-H ) :   0.9268 


-------
TIMINGS
-------

Total SCF time: 0 days 0 hours 0 min 10 sec 

Total time                  ....      10.496 sec
Sum of individual times     ....      10.430 sec  ( 99.4%)

Fock matrix formation       ....      10.243 sec  ( 97.6%)
  XC integration            ....       0.888 sec  (  8.7% of F)
    Basis function eval.    ....       0.304 sec  ( 34.3% of XC)
    Density eval.           ....       0.162 sec  ( 18.3% of XC)
    XC-Functional eval.     ....       0.076 sec  (  8.6% of XC)
    XC-Potential eval.      ....       0.283 sec  ( 31.9% of XC)
Diagonalization             ....       0.017 sec  (  0.2%)
Density matrix formation    ....       0.002 sec  (  0.0%)
Population analysis         ....       0.013 sec  (  0.1%)
Initial guess               ....       0.008 sec  (  0.1%)
Orbital Transformation      ....       0.000 sec  (  0.0%)
Orbital Orthonormalization  ....       0.000 sec  (  0.0%)
DIIS solution               ....       0.004 sec  (  0.0%)
SOSCF solution              ....       0.028 sec  (  0.3%)
Grid generation             ....       0.115 sec  (  1.1%)


-------------------------------------------------------------------------------
                          DFT DISPERSION CORRECTION                            
                                                                               
                              DFTD3 V3.1  Rev 1                                
                          USING Becke-Johnson damping                          
-------------------------------------------------------------------------------
The PBEh-3c composite method is recognized
Using three-body term ABC
Active option DFTDOPT                   ...         4   

molecular C6(AA) [au] = 967.520586 


            DFT-D V3
 parameters
 s6 scaling factor         :     1.0000 
 a1 scaling factor         :     0.4860 
 s8 scaling factor         :     0.0000 
 a2 scaling factor         :     4.5000 
 Damping factor alpha9(ATM):    16.0000 
 ad hoc parameters k1-k3   :    16.0000     1.3333    -4.0000 

 Edisp/kcal,au: -2.320456464442  -0.003697882363 
 E6   /kcal   :  -2.321967625 
 E8   /kcal   :  -0.000000000 
 E6(ABC)      :   0.001511160 
 % E8         :   0.000000000 
 % E6(ABC)    :  -0.065123408 

-------------------------   ----------------
Dispersion correction           -0.003697882
-------------------------   ----------------

------------------   -----------------
gCP correction             0.012461389
------------------   -----------------

-------------------------   --------------------
FINAL SINGLE POINT ENERGY      -209.206198810067
-------------------------   --------------------



           ************************************************************
           *        Program running with 4 parallel MPI-processes     *
           *              working on a common directory               *
           ************************************************************
------------------------------------------------------------------------------
                         ORCA SCF GRADIENT CALCULATION
------------------------------------------------------------------------------

Gradient of the Kohn-Sham DFT energy:
Kohn-Sham wavefunction type      ... RKS
Hartree-Fock exchange scaling    ...    0.420
Number of operators              ...    1
Number of atoms                  ...    9
Basis set dimensions             ...   83
Integral neglect threshold       ... 2.5e-11
Integral primitive cutoff        ... 2.5e-12

Nuclear repulsion gradient       ... done
One Electron Gradient            ... done
Pre-screening matrix             ... done
Starting the two electron gradient:
Will do only exchange terms
Two electron gradient done
RI-J gradient                    ... done
Exchange-correlation gradient    ... done
Dispersion correction            ... done
gCP correction                   ... done

------------------
CARTESIAN GRADIENT
------------------

   1   C   :   -0.039938859    0.000000000   -0.014672213
   2   C   :   -0.000416977   -0.000000000    0.027293549
   3   C   :    0.000220938   -0.000000000    0.027070047
   4   C   :    0.040200709    0.000000000   -0.014668839
   5   N   :   -0.000038149    0.000000000   -0.035319494
   6   H   :    0.003665971    0.000000000   -0.000542023
   7   H   :    0.000576454   -0.000000000    0.005683053
   8   H   :   -0.000598280    0.000000000    0.005723700
   9   H   :   -0.003671807   -0.000000000   -0.000567780

Difference to translation invariance:
           :   -0.0000000000   -0.0000000000    0.0000000000

Norm of the cartesian gradient     ...    0.0803763643
RMS gradient                       ...    0.0154684385
MAX gradient                       ...    0.0402007086

-------
TIMINGS
-------

Total SCF gradient time            ...        1.932 sec

One electron gradient       ....       0.012 sec  (  0.6%)
Prescreening matrices       ....       0.025 sec  (  1.3%)
Two electron gradient       ....       0.886 sec  ( 45.8%)
RI-J Coulomb gradient       ....       0.214 sec  ( 11.1%)
XC gradient                 ....       0.345 sec  ( 17.8%)
CPCM gradient               ....       0.163 sec  (  8.5%)
   A-Matrix (El+Nuc)        ....       0.004 sec  (  0.2%)
   Potential                ....       0.159 sec  (  8.2%)
------------------------------------------------------------------------------
                         ORCA GEOMETRY RELAXATION STEP
------------------------------------------------------------------------------

Reading the OPT-File                    .... done
Getting information on internals        .... done
Copying old internal coords+grads       .... done
Making the new internal coordinates     .... (new redundants).... done
Validating the new internal coordinates .... (new redundants).... done
Calculating the B-matrix                .... done
Calculating the G,G- and P matrices     .... done
Transforming gradient to internals      .... done
Projecting the internal gradient        .... done
Number of atoms                         ....   9
Number of internal coordinates          ....  38
Current Energy                          ....  -209.206198810 Eh
Current gradient norm                   ....     0.080376364 Eh/bohr
Maximum allowed component of the step   ....  0.300
Current trust radius                    ....  0.300
Evaluating the initial hessian          ....  (Almloef) done
Projecting the Hessian                  .... done
Forming the augmented Hessian           .... done
Diagonalizing the augmented Hessian     .... done
Last element of RFO vector              ....  0.988336144
Lowest eigenvalues of augmented Hessian:
 -0.011074752  0.025215686  0.027313030  0.027628609  0.029807874
Length of the computed step             ....  0.154085330
The final length of the internal step   ....  0.154085330
Converting the step to cartesian space:
 Initial RMS(Int)=    0.0249959413
Transforming coordinates:
 Iter   0:  RMS(Cart)=    0.0326547590 RMS(Int)=    2.2792875983
 Iter   1:  RMS(Cart)=    0.0005604032 RMS(Int)=    0.0004734819
 Iter   2:  RMS(Cart)=    0.0000180971 RMS(Int)=    0.0000122260
 Iter   3:  RMS(Cart)=    0.0000004905 RMS(Int)=    0.0000004338
 Iter   4:  RMS(Cart)=    0.0000000164 RMS(Int)=    0.0000000112
done
Storing new coordinates                 .... done

                                .--------------------.
          ----------------------|Geometry convergence|-------------------------
          Item                value                   Tolerance       Converged
          ---------------------------------------------------------------------
          RMS gradient        0.0118773026            0.0001000000      NO
          MAX gradient        0.0299692722            0.0003000000      NO
          RMS step            0.0249959413            0.0020000000      NO
          MAX step            0.0725228504            0.0040000000      NO
          ........................................................
          Max(Bonds)      0.0211      Max(Angles)    4.16
          Max(Dihed)        0.00      Max(Improp)    0.00
          ---------------------------------------------------------------------

The optimization has not yet converged - more geometry cycles are needed


    ---------------------------------------------------------------------------
                         Redundant Internal Coordinates
                            (Angstroem and degrees)

        Definition                    Value    dE/dq     Step     New-Value
    ----------------------------------------------------------------------------
     1. B(C   1,C   0)                1.3696 -0.027087  0.0211    1.3907   
     2. B(C   2,C   1)                1.4170  0.014504 -0.0125    1.4044   
     3. B(C   3,C   2)                1.3696 -0.026961  0.0210    1.3906   
     4. B(N   4,C   3)                1.3612  0.007601 -0.0069    1.3543   
     5. B(N   4,C   0)                1.3612  0.007548 -0.0069    1.3544   
     6. B(H   5,C   0)                1.0769 -0.003577  0.0049    1.0818   
     7. B(H   6,C   1)                1.0775 -0.004891  0.0067    1.0842   
     8. B(H   7,C   2)                1.0775 -0.004941  0.0067    1.0843   
     9. B(H   8,C   3)                1.0769 -0.003596  0.0049    1.0818   
    10. A(C   1,C   0,H   5)          130.70  0.014296   -1.91    128.79   
    11. A(C   1,C   0,N   4)          107.77 -0.026711    3.56    111.34   
    12. A(N   4,C   0,H   5)          121.53  0.012415   -1.65    119.88   
    13. A(C   0,C   1,H   6)          125.89 -0.008846    1.20    127.08   
    14. A(C   0,C   1,C   2)          107.25  0.011758   -1.49    105.77   
    15. A(C   2,C   1,H   6)          126.86 -0.002911    0.29    127.15   
    16. A(C   3,C   2,H   7)          125.89 -0.008932    1.21    127.10   
    17. A(C   1,C   2,H   7)          126.86 -0.002848    0.28    127.14   
    18. A(C   1,C   2,C   3)          107.25  0.011780   -1.49    105.76   
    19. A(N   4,C   3,H   8)          121.53  0.012404   -1.65    119.88   
    20. A(C   2,C   3,H   8)          130.70  0.014393   -1.92    128.78   
    21. A(C   2,C   3,N   4)          107.77 -0.026797    3.57    111.34   
    22. A(C   0,N   4,C   3)          109.95  0.029969   -4.16    105.79   
    23. D(C   2,C   1,C   0,N   4)      0.00 -0.000000    0.00      0.00   
    24. D(H   6,C   1,C   0,N   4)    180.00 -0.000000    0.00    180.00   
    25. D(H   6,C   1,C   0,H   5)      0.00 -0.000000    0.00      0.00   
    26. D(C   2,C   1,C   0,H   5)    180.00 -0.000000    0.00    180.00   
    27. D(C   3,C   2,C   1,H   6)    180.00  0.000000   -0.00    180.00   
    28. D(H   7,C   2,C   1,C   0)    180.00  0.000000   -0.00    180.00   
    29. D(C   3,C   2,C   1,C   0)      0.00  0.000000   -0.00     -0.00   
    30. D(H   7,C   2,C   1,H   6)      0.00  0.000000   -0.00     -0.00   
    31. D(H   8,C   3,C   2,H   7)      0.00 -0.000000    0.00      0.00   
    32. D(H   8,C   3,C   2,C   1)    180.00 -0.000000    0.00    180.00   
    33. D(N   4,C   3,C   2,H   7)    180.00 -0.000000    0.00    180.00   
    34. D(N   4,C   3,C   2,C   1)      0.00 -0.000000    0.00      0.00   
    35. D(C   0,N   4,C   3,C   2)      0.00  0.000000   -0.00     -0.00   
    36. D(C   3,N   4,C   0,H   5)    180.00  0.000000   -0.00    180.00   
    37. D(C   3,N   4,C   0,C   1)      0.00  0.000000   -0.00     -0.00   
    38. D(C   0,N   4,C   3,H   8)    180.00  0.000000    0.00    180.00   
    ----------------------------------------------------------------------------

         *************************************************************
         *                GEOMETRY OPTIMIZATION CYCLE   2            *
         *************************************************************
---------------------------------
CARTESIAN COORDINATES (ANGSTROEM)
---------------------------------
  C     -1.080147   -0.000000    0.374097
  C     -0.702157    0.000000   -0.964288
  C      0.702262   -0.000000   -0.964245
  C      1.080044    0.000000    0.374089
  N     -0.000018    0.000000    1.191153
  H     -2.075782   -0.000000    0.797112
  H     -1.356852    0.000000   -1.828524
  H      1.356907   -0.000000   -1.828606
  H      2.075743    0.000000    0.797018

----------------------------
CARTESIAN COORDINATES (A.U.)
----------------------------
  NO LB      ZA    FRAG     MASS         X           Y           Z
   0 C     6.0000    0    12.011   -2.041182   -0.000000    0.706940
   1 C     6.0000    0    12.011   -1.326885    0.000000   -1.822239
   2 C     6.0000    0    12.011    1.327083   -0.000000   -1.822160
   3 C     6.0000    0    12.011    2.040987    0.000000    0.706926
   4 N     7.0000    0    14.007   -0.000034    0.000000    2.250953
   5 H     1.0000    0     1.008   -3.922659   -0.000000    1.506322
   6 H     1.0000    0     1.008   -2.564079    0.000000   -3.455410
   7 H     1.0000    0     1.008    2.564183   -0.000000   -3.455564
   8 H     1.0000    0     1.008    3.922586    0.000000    1.506146

--------------------------------
INTERNAL COORDINATES (ANGSTROEM)
--------------------------------
 C      0   0   0     0.000000000000     0.00000000     0.00000000
 C      1   0   0     1.390736593489     0.00000000     0.00000000
 C      2   1   0     1.404419306662   105.76914873     0.00000000
 C      3   2   1     1.390632306683   105.76490542     0.00000000
 N      4   3   2     1.354299584548   111.34422541     0.00000000
 H      1   2   3     1.081772071441   128.79001500   180.00000000
 H      2   1   3     1.084219083354   127.08370725   180.00000000
 H      3   2   1     1.084287232920   127.13766350   179.99999915
 H      4   3   2     1.081797575467   128.77683259   180.00000000

---------------------------
INTERNAL COORDINATES (A.U.)
---------------------------
 C      0   0   0     0.000000000000     0.00000000     0.00000000
 C      1   0   0     2.628111286116     0.00000000     0.00000000
 C      2   1   0     2.653967866782   105.76914873     0.00000000
 C      3   2   1     2.627914212614   105.76490542     0.00000000
 N      4   3   2     2.559255318078   111.34422541     0.00000000
 H      1   2   3     2.044252954348   128.79001500   180.00000000
 H      2   1   3     2.048877136711   127.08370725   180.00000000
 H      3   2   1     2.049005920727   127.13766350   179.99999915
 H      4   3   2     2.044301149973   128.77683259   180.00000000



           ************************************************************
           *        Program running with 4 parallel MPI-processes     *
           *              working on a common directory               *
           ************************************************************
 One Electron integrals                  ... done
 Pre-screening matrix                    ... done


           ************************************************************
           *        Program running with 4 parallel MPI-processes     *
           *              working on a common directory               *
           ************************************************************

Diagonalization of the overlap matrix:
Smallest eigenvalue                        ... 1.234e-03
Time for diagonalization                   ...    0.002 sec
Threshold for overlap eigenvalues          ... 1.000e-08
Number of eigenvalues below threshold      ... 0
Time for construction of square roots      ...    0.001 sec
Total time needed                          ...    0.002 sec

-------------------
DFT GRID GENERATION
-------------------

General Integration Accuracy     IntAcc      ...  4.340
Radial Grid Type                 RadialGrid  ... Gauss-Chebyshev
Angular Grid (max. acc.)         AngularGrid ... Lebedev-194
Angular grid pruning method      GridPruning ... 3 (G Style)
Weight generation scheme         WeightScheme... Becke
Basis function cutoff            BFCut       ...    1.0000e-11
Integration weight cutoff        WCut        ...    1.0000e-14
Grids for H and He will be reduced by one unit

# of grid points (after initial pruning)     ...  22550 (   0.0 sec)
# of grid points (after weights+screening)   ...  21343 (   0.0 sec)
nearest neighbour list constructed           ...    0.0 sec
Grid point re-assignment to atoms done       ...    0.0 sec
Grid point division into batches done        ...    0.1 sec
Reduced shell lists constructed in    0.1 sec

Total number of grid points                  ...    21343
Total number of batches                      ...      338
Average number of points per batch           ...       63
Average number of grid points per atom       ...     2371
Average number of shells per batch           ...    36.05 (83.83%)
Average number of basis functions per batch  ...    75.58 (91.06%)
Average number of large shells per batch     ...    32.65 (90.58%)
Average number of large basis fcns per batch ...    71.30 (94.34%)
Maximum spatial batch extension              ...   3.37, 22.17,  3.48 au
Average spatial batch extension              ...   0.39,  0.75,  0.40 au

Time for grid setup =    0.115 sec


------------------------------------------------------------------------------
                           CPCM SOLVATION MODEL                               
------------------------------------------------------------------------------
CPCM parameters:
  Epsilon                                         ...      78.3550
  Refrac                                          ...       1.3300
  Rsolv                                           ...       1.3000
  Surface type                                    ...    GEPOL SES
  Epsilon function type                           ...         CPCM
Solvent:                                     ... WATER
SMD-CDS solvent descriptors:
  Soln                                       ...    1.3328
  Soln25                                     ...    1.3323
  Sola                                       ...    0.0000
  Solb                                       ...    0.0000
  Solg                                       ...    0.0000
  Solc                                       ...    0.0000
  Solh                                       ...    0.0000
Radii:
 Radius for C  used is    3.4960 Bohr (=   1.8500 Ang.)
 Radius for N  used is    3.5716 Bohr (=   1.8900 Ang.)
 Radius for H  used is    2.2677 Bohr (=   1.2000 Ang.)
Calculating surface                               ...        done! (  0.0s)
GEPOL surface points                              ...          305
GEPOL Volume                                      ...     533.0040
GEPOL Surface-area                                ...     347.0446
Calculating surface distance matrix               ...        done! (  0.0s)
Performing Cholesky decomposition & store         ...        done! (  0.0s)
Overall time for CPCM initialization              ...                 0.0s
--------------
SCF ITERATIONS
--------------
ITER       Energy         Delta-E        Max-DP      RMS-DP      [F,P]     Damp
               ***  Starting incremental Fock matrix formation  ***
  0   -209.2210735401   0.000000000000 0.00521874  0.00023818  0.0090769 0.7000
                      *** Initiating the SOSCF procedure ***
                      *** Re-Reading the Fockian *** 
                      *** Removing any level shift *** 
ITER      Energy       Delta-E        Grad      Rot      Max-DP    RMS-DP
  1   -209.22147970  -0.0004061643  0.001571  0.001571  0.015218  0.000720
               *** Restarting incremental Fock matrix formation ***
  2   -209.22254592  -0.0010662147  0.001648  0.002829  0.003147  0.000231
  3   -209.22257754  -0.0000316214  0.001218  0.001370  0.002460  0.000121
  4   -209.22259802  -0.0000204789  0.000289  0.000426  0.000940  0.000039
  5   -209.22259900  -0.0000009816  0.000154  0.000237  0.000294  0.000013
  6   -209.22259936  -0.0000003573  0.000035  0.000038  0.000084  0.000005
  7   -209.22259938  -0.0000000229  0.000014  0.000022  0.000028  0.000002
  8   -209.22259938  -0.0000000032  0.000006  0.000007  0.000007  0.000001
                  ***Gradient check signals convergence***
              ***Rediagonalizing the Fockian in SOSCF/NRSCF***

               *****************************************************
               *                     SUCCESS                       *
               *           SCF CONVERGED AFTER   9 CYCLES          *
               *****************************************************


SMD CDS free energy correction energy :                 0.91800     Kcal/mol
Total Energy after SMD CDS correction =              -209.221136462 Eh
Total Energy       :         -209.22113646 Eh           -5693.19656 eV
  Last Energy change         ...   -3.8943e-09  Tolerance :   1.0000e-08
  Last MAX-Density change    ...    2.7362e-06  Tolerance :   1.0000e-07
             **** THE GBW FILE WAS UPDATED (pyrrolate@water.gbw) ****
             **** DENSITY FILE WAS UPDATED (pyrrolate@water.scfp.tmp) ****
             **** ENERGY FILE WAS UPDATED (pyrrolate@water.en.tmp) ****
Total SCF time: 0 days 0 hours 0 min 7 sec 


-------------------------------------------------------------------------------
                          DFT DISPERSION CORRECTION                            
                                                                               
                              DFTD3 V3.1  Rev 1                                
                          USING Becke-Johnson damping                          
-------------------------------------------------------------------------------
-------------------------   ----------------
Dispersion correction           -0.003669915
-------------------------   ----------------

------------------   -----------------
gCP correction             0.012399715
------------------   -----------------

-------------------------   --------------------
FINAL SINGLE POINT ENERGY      -209.212406662481
-------------------------   --------------------



           ************************************************************
           *        Program running with 4 parallel MPI-processes     *
           *              working on a common directory               *
           ************************************************************
------------------------------------------------------------------------------
                         ORCA SCF GRADIENT CALCULATION
------------------------------------------------------------------------------

Gradient of the Kohn-Sham DFT energy:
Kohn-Sham wavefunction type      ... RKS
Hartree-Fock exchange scaling    ...    0.420
Number of operators              ...    1
Number of atoms                  ...    9
Basis set dimensions             ...   83
Integral neglect threshold       ... 2.5e-11
Integral primitive cutoff        ... 2.5e-12

Nuclear repulsion gradient       ... done
One Electron Gradient            ... done
Pre-screening matrix             ... done
Starting the two electron gradient:
Will do only exchange terms
Two electron gradient done
RI-J gradient                    ... done
Exchange-correlation gradient    ... done
Dispersion correction            ... done
gCP correction                   ... done

------------------
CARTESIAN GRADIENT
------------------

   1   C   :   -0.008761169   -0.000000000   -0.004877691
   2   C   :    0.008233134    0.000000000    0.005212408
   3   C   :   -0.008363130   -0.000000000    0.004995948
   4   C   :    0.008925671    0.000000000   -0.004761906
   5   N   :   -0.000037852    0.000000000   -0.002105880
   6   H   :    0.002569743    0.000000000    0.001706151
   7   H   :   -0.000827664    0.000000000   -0.000915219
   8   H   :    0.000820778   -0.000000000   -0.000929214
   9   H   :   -0.002559511    0.000000000    0.001675404

Difference to translation invariance:
           :    0.0000000000    0.0000000000    0.0000000000

Norm of the cartesian gradient     ...    0.0204723466
RMS gradient                       ...    0.0039399049
MAX gradient                       ...    0.0089256712

-------
TIMINGS
-------

Total SCF gradient time            ...        1.965 sec

One electron gradient       ....       0.013 sec  (  0.7%)
Prescreening matrices       ....       0.025 sec  (  1.3%)
Two electron gradient       ....       0.902 sec  ( 45.9%)
RI-J Coulomb gradient       ....       0.216 sec  ( 11.0%)
XC gradient                 ....       0.348 sec  ( 17.7%)
CPCM gradient               ....       0.162 sec  (  8.3%)
   A-Matrix (El+Nuc)        ....       0.004 sec  (  0.2%)
   Potential                ....       0.158 sec  (  8.0%)
------------------------------------------------------------------------------
                         ORCA GEOMETRY RELAXATION STEP
------------------------------------------------------------------------------

Reading the OPT-File                    .... done
Getting information on internals        .... done
Copying old internal coords+grads       .... done
Making the new internal coordinates     .... (new redundants).... done
Validating the new internal coordinates .... (new redundants).... done
Calculating the B-matrix                .... done
Calculating the G,G- and P matrices     .... done
Transforming gradient to internals      .... done
Projecting the internal gradient        .... done
Number of atoms                         ....   9
Number of internal coordinates          ....  38
Current Energy                          ....  -209.212406662 Eh
Current gradient norm                   ....     0.020472347 Eh/bohr
Maximum allowed component of the step   ....  0.300
Current trust radius                    ....  0.300
Updating the Hessian (BFGS)             .... done
Forming the augmented Hessian           .... done
Diagonalizing the augmented Hessian     .... done
Last element of RFO vector              ....  0.999435734
Lowest eigenvalues of augmented Hessian:
 -0.000399858  0.025215686  0.027313030  0.027628609  0.029807874
Length of the computed step             ....  0.033607845
The final length of the internal step   ....  0.033607845
Converting the step to cartesian space:
 Initial RMS(Int)=    0.0054519124
Transforming coordinates:
 Iter   0:  RMS(Cart)=    0.0052046197 RMS(Int)=    2.4966906205
 Iter   1:  RMS(Cart)=    0.0000326335 RMS(Int)=    0.0000229855
 Iter   2:  RMS(Cart)=    0.0000001287 RMS(Int)=    0.0000001327
 Iter   3:  RMS(Cart)=    0.0000000015 RMS(Int)=    0.0000000011
done
Storing new coordinates                 .... done

                                .--------------------.
          ----------------------|Geometry convergence|-------------------------
          Item                value                   Tolerance       Converged
          ---------------------------------------------------------------------
          Energy change      -0.0062078524            0.0000050000      NO
          RMS gradient        0.0019585159            0.0001000000      NO
          MAX gradient        0.0045964124            0.0003000000      NO
          RMS step            0.0054519124            0.0020000000      NO
          MAX step            0.0141116819            0.0040000000      NO
          ........................................................
          Max(Bonds)      0.0041      Max(Angles)    0.81
          Max(Dihed)        0.00      Max(Improp)    0.00
          ---------------------------------------------------------------------

The optimization has not yet converged - more geometry cycles are needed


    ---------------------------------------------------------------------------
                         Redundant Internal Coordinates
                            (Angstroem and degrees)

        Definition                    Value    dE/dq     Step     New-Value
    ----------------------------------------------------------------------------
     1. B(C   1,C   0)                1.3907 -0.003111  0.0032    1.3939   
     2. B(C   2,C   1)                1.4044 -0.003815  0.0041    1.4085   
     3. B(C   3,C   2)                1.3906 -0.002950  0.0030    1.3937   
     4. B(N   4,C   3)                1.3543  0.001473 -0.0017    1.3526   
     5. B(N   4,C   0)                1.3543  0.001436 -0.0017    1.3527   
     6. B(H   5,C   0)                1.0818 -0.001697  0.0028    1.0845   
     7. B(H   6,C   1)                1.0842  0.001230 -0.0019    1.0824   
     8. B(H   7,C   2)                1.0843  0.001235 -0.0019    1.0824   
     9. B(H   8,C   3)                1.0818 -0.001702  0.0028    1.0846   
    10. A(C   1,C   0,H   5)          128.79  0.004545   -0.80    127.99   
    11. A(C   1,C   0,N   4)          111.33 -0.003873    0.65    111.99   
    12. A(N   4,C   0,H   5)          119.88 -0.000671    0.15    120.02   
    13. A(C   0,C   1,H   6)          127.08 -0.001312    0.20    127.29   
    14. A(C   0,C   1,C   2)          105.77  0.002448   -0.37    105.40   
    15. A(C   2,C   1,H   6)          127.15 -0.001136    0.16    127.31   
    16. A(C   3,C   2,H   7)          127.10 -0.001331    0.21    127.31   
    17. A(C   1,C   2,H   7)          127.14 -0.001096    0.16    127.29   
    18. A(C   1,C   2,C   3)          105.76  0.002427   -0.37    105.40   
    19. A(N   4,C   3,H   8)          119.88 -0.000650    0.15    120.03   
    20. A(C   2,C   3,H   8)          128.78  0.004596   -0.81    127.97   
    21. A(C   2,C   3,N   4)          111.34 -0.003947    0.66    112.01   
    22. A(C   0,N   4,C   3)          105.79  0.002945   -0.58    105.20   
    23. D(C   2,C   1,C   0,N   4)      0.00  0.000000   -0.00     -0.00   
    24. D(H   6,C   1,C   0,N   4)   -180.00  0.000000   -0.00   -180.00   
    25. D(H   6,C   1,C   0,H   5)      0.00 -0.000000    0.00      0.00   
    26. D(C   2,C   1,C   0,H   5)   -180.00  0.000000   -0.00   -180.00   
    27. D(C   3,C   2,C   1,H   6)    180.00 -0.000000    0.00    180.00   
    28. D(H   7,C   2,C   1,C   0)    180.00 -0.000000    0.00    180.00   
    29. D(C   3,C   2,C   1,C   0)     -0.00 -0.000000    0.00      0.00   
    30. D(H   7,C   2,C   1,H   6)     -0.00 -0.000000    0.00      0.00   
    31. D(H   8,C   3,C   2,H   7)      0.00 -0.000000    0.00      0.00   
    32. D(H   8,C   3,C   2,C   1)   -180.00  0.000000   -0.00   -180.00   
    33. D(N   4,C   3,C   2,H   7)   -180.00  0.000000   -0.00   -180.00   
    34. D(N   4,C   3,C   2,C   1)      0.00  0.000000   -0.00     -0.00   
    35. D(C   0,N   4,C   3,C   2)     -0.00 -0.000000    0.00      0.00   
    36. D(C   3,N   4,C   0,H   5)    180.00  0.000000   -0.00    180.00   
    37. D(C   3,N   4,C   0,C   1)     -0.00 -0.000000    0.00      0.00   
    38. D(C   0,N   4,C   3,H   8)   -180.00  0.000000   -0.00   -180.00   
    ----------------------------------------------------------------------------

         *************************************************************
         *                GEOMETRY OPTIMIZATION CYCLE   3            *
         *************************************************************
---------------------------------
CARTESIAN COORDINATES (ANGSTROEM)
---------------------------------
  C     -1.074600    0.000000    0.376761
  C     -0.704189   -0.000000   -0.967070
  C      0.704353    0.000000   -0.966963
  C      1.074423   -0.000000    0.376692
  N     -0.000003    0.000000    1.198281
  H     -2.076021    0.000000    0.793175
  H     -1.360145   -0.000000   -1.828008
  H      1.360241    0.000000   -1.828030
  H      2.075939   -0.000000    0.792967

----------------------------
CARTESIAN COORDINATES (A.U.)
----------------------------
  NO LB      ZA    FRAG     MASS         X           Y           Z
   0 C     6.0000    0    12.011   -2.030699    0.000000    0.711975
   1 C     6.0000    0    12.011   -1.330724   -0.000000   -1.827498
   2 C     6.0000    0    12.011    1.331035    0.000000   -1.827295
   3 C     6.0000    0    12.011    2.030366   -0.000000    0.711845
   4 N     7.0000    0    14.007   -0.000006    0.000000    2.264423
   5 H     1.0000    0     1.008   -3.923110    0.000000    1.498884
   6 H     1.0000    0     1.008   -2.570301   -0.000000   -3.454434
   7 H     1.0000    0     1.008    2.570483    0.000000   -3.454476
   8 H     1.0000    0     1.008    3.922957   -0.000000    1.498490

--------------------------------
INTERNAL COORDINATES (ANGSTROEM)
--------------------------------
 C      0   0   0     0.000000000000     0.00000000     0.00000000
 C      1   0   0     1.393946614302     0.00000000     0.00000000
 C      2   1   0     1.408541993530   105.40586944     0.00000000
 C      3   2   1     1.393685930081   105.40300961     0.00000000
 N      4   3   2     1.352553415752   112.00565965     0.00000000
 H      1   2   3     1.084547921386   127.98891707   180.00000000
 H      2   1   3     1.082354376589   127.28565876   180.00000000
 H      3   2   1     1.082416132175   127.29271016   180.00000000
 H      4   3   2     1.084582621559   127.96860833   180.00000000

---------------------------
INTERNAL COORDINATES (A.U.)
---------------------------
 C      0   0   0     0.000000000000     0.00000000     0.00000000
 C      1   0   0     2.634177346338     0.00000000     0.00000000
 C      2   1   0     2.661758615899   105.40586944     0.00000000
 C      3   2   1     2.633684724553   105.40300961     0.00000000
 N      4   3   2     2.555955537271   112.00565965     0.00000000
 H      1   2   3     2.049498550533   127.98891707   180.00000000
 H      2   1   3     2.045353351604   127.28565876   180.00000000
 H      3   2   1     2.045470052750   127.29271016   180.00000000
 H      4   3   2     2.049564124357   127.96860833   180.00000000



           ************************************************************
           *        Program running with 4 parallel MPI-processes     *
           *              working on a common directory               *
           ************************************************************
 One Electron integrals                  ... done
 Pre-screening matrix                    ... done


           ************************************************************
           *        Program running with 4 parallel MPI-processes     *
           *              working on a common directory               *
           ************************************************************

Diagonalization of the overlap matrix:
Smallest eigenvalue                        ... 1.257e-03
Time for diagonalization                   ...    0.002 sec
Threshold for overlap eigenvalues          ... 1.000e-08
Number of eigenvalues below threshold      ... 0
Time for construction of square roots      ...    0.001 sec
Total time needed                          ...    0.002 sec

-------------------
DFT GRID GENERATION
-------------------

General Integration Accuracy     IntAcc      ...  4.340
Radial Grid Type                 RadialGrid  ... Gauss-Chebyshev
Angular Grid (max. acc.)         AngularGrid ... Lebedev-194
Angular grid pruning method      GridPruning ... 3 (G Style)
Weight generation scheme         WeightScheme... Becke
Basis function cutoff            BFCut       ...    1.0000e-11
Integration weight cutoff        WCut        ...    1.0000e-14
Grids for H and He will be reduced by one unit

# of grid points (after initial pruning)     ...  22550 (   0.0 sec)
# of grid points (after weights+screening)   ...  21348 (   0.0 sec)
nearest neighbour list constructed           ...    0.0 sec
Grid point re-assignment to atoms done       ...    0.0 sec
Grid point division into batches done        ...    0.1 sec
Reduced shell lists constructed in    0.1 sec

Total number of grid points                  ...    21348
Total number of batches                      ...      338
Average number of points per batch           ...       63
Average number of grid points per atom       ...     2372
Average number of shells per batch           ...    36.03 (83.80%)
Average number of basis functions per batch  ...    75.57 (91.05%)
Average number of large shells per batch     ...    32.58 (90.42%)
Average number of large basis fcns per batch ...    71.14 (94.14%)
Maximum spatial batch extension              ...   3.36, 22.17,  3.50 au
Average spatial batch extension              ...   0.37,  0.74,  0.39 au

Time for grid setup =    0.114 sec


------------------------------------------------------------------------------
                           CPCM SOLVATION MODEL                               
------------------------------------------------------------------------------
CPCM parameters:
  Epsilon                                         ...      78.3550
  Refrac                                          ...       1.3300
  Rsolv                                           ...       1.3000
  Surface type                                    ...    GEPOL SES
  Epsilon function type                           ...         CPCM
Solvent:                                     ... WATER
SMD-CDS solvent descriptors:
  Soln                                       ...    1.3328
  Soln25                                     ...    1.3323
  Sola                                       ...    0.0000
  Solb                                       ...    0.0000
  Solg                                       ...    0.0000
  Solc                                       ...    0.0000
  Solh                                       ...    0.0000
Radii:
 Radius for C  used is    3.4960 Bohr (=   1.8500 Ang.)
 Radius for N  used is    3.5716 Bohr (=   1.8900 Ang.)
 Radius for H  used is    2.2677 Bohr (=   1.2000 Ang.)
Calculating surface                               ...        done! (  0.0s)
GEPOL surface points                              ...          299
GEPOL Volume                                      ...     533.5688
GEPOL Surface-area                                ...     347.3913
Calculating surface distance matrix               ...        done! (  0.0s)
Performing Cholesky decomposition & store         ...        done! (  0.0s)
Overall time for CPCM initialization              ...                 0.0s
--------------
SCF ITERATIONS
--------------
ITER       Energy         Delta-E        Max-DP      RMS-DP      [F,P]     Damp
               ***  Starting incremental Fock matrix formation  ***
                      *** Initiating the SOSCF procedure ***
                      *** Re-Reading the Fockian *** 
                      *** Removing any level shift *** 
ITER      Energy       Delta-E        Grad      Rot      Max-DP    RMS-DP
  0   -209.22275751 -209.2227575107  0.001199  0.001199  0.002685  0.000145
               *** Restarting incremental Fock matrix formation ***
  1   -209.22281129  -0.0000537840  0.000523  0.000572  0.000921  0.000069
  2   -209.22281615  -0.0000048576  0.000447  0.000786  0.000988  0.000043
  3   -209.22281799  -0.0000018343  0.000127  0.000186  0.000337  0.000015
  4   -209.22281827  -0.0000002792  0.000039  0.000049  0.000082  0.000004
  5   -209.22281828  -0.0000000138  0.000022  0.000026  0.000034  0.000002
                  ***Gradient check signals convergence***
              ***Rediagonalizing the Fockian in SOSCF/NRSCF***

               *****************************************************
               *                     SUCCESS                       *
               *           SCF CONVERGED AFTER   6 CYCLES          *
               *****************************************************


SMD CDS free energy correction energy :                 0.91500     Kcal/mol
Total Energy after SMD CDS correction =              -209.221360140 Eh
Total Energy       :         -209.22136014 Eh           -5693.20265 eV
[...]
             <<<Displacing   9/coordinate 3 (+)>>>
             <<<Displacing   9/coordinate 1 (-)>>>
             <<<Displacing   9/coordinate 2 (-)>>>
             <<<Displacing   9/coordinate 3 (-)>>>

-----------------------
VIBRATIONAL FREQUENCIES
-----------------------

   0:         0.00 cm**-1
   1:         0.00 cm**-1
   2:         0.00 cm**-1
   3:         0.00 cm**-1
   4:         0.00 cm**-1
   5:         0.00 cm**-1
   6:       660.59 cm**-1
   7:       707.00 cm**-1
   8:       736.87 cm**-1
   9:       764.68 cm**-1
  10:       830.82 cm**-1
  11:       865.84 cm**-1
  12:       913.28 cm**-1
  13:       914.87 cm**-1
  14:      1062.62 cm**-1
  15:      1077.87 cm**-1
  16:      1149.94 cm**-1
  17:      1225.95 cm**-1
  18:      1291.40 cm**-1
  19:      1389.16 cm**-1
  20:      1461.10 cm**-1
  21:      1538.25 cm**-1
  22:      1554.93 cm**-1
  23:      3243.16 cm**-1
  24:      3248.26 cm**-1
  25:      3274.99 cm**-1
  26:      3293.01 cm**-1


------------
NORMAL MODES
------------

These modes are the cartesian displacements weighted by the diagonal matrix
M(i,i)=1/sqrt(m[i]) where m[i] is the mass of the displaced atom
Thus, these vectors are normalized but *not* orthogonal

                  0          1          2          3          4          5    
      0       0.000000   0.000000   0.000000   0.000000   0.000000   0.000000
      1       0.000000   0.000000   0.000000   0.000000   0.000000   0.000000
      2       0.000000   0.000000   0.000000   0.000000   0.000000   0.000000
      3       0.000000   0.000000   0.000000   0.000000   0.000000   0.000000
      4       0.000000   0.000000   0.000000   0.000000   0.000000   0.000000
      5       0.000000   0.000000   0.000000   0.000000   0.000000   0.000000
      6       0.000000   0.000000   0.000000   0.000000   0.000000   0.000000
      7       0.000000   0.000000   0.000000   0.000000   0.000000   0.000000
      8       0.000000   0.000000   0.000000   0.000000   0.000000   0.000000
      9       0.000000   0.000000   0.000000   0.000000   0.000000   0.000000
     10       0.000000   0.000000   0.000000   0.000000   0.000000   0.000000
     11       0.000000   0.000000   0.000000   0.000000   0.000000   0.000000
     12       0.000000   0.000000   0.000000   0.000000   0.000000   0.000000
     13       0.000000   0.000000   0.000000   0.000000   0.000000   0.000000
     14       0.000000   0.000000   0.000000   0.000000   0.000000   0.000000
     15       0.000000   0.000000   0.000000   0.000000   0.000000   0.000000
     16       0.000000   0.000000   0.000000   0.000000   0.000000   0.000000
     17       0.000000   0.000000   0.000000   0.000000   0.000000   0.000000
     18       0.000000   0.000000   0.000000   0.000000   0.000000   0.000000
     19       0.000000   0.000000   0.000000   0.000000   0.000000   0.000000
     20       0.000000   0.000000   0.000000   0.000000   0.000000   0.000000
     21       0.000000   0.000000   0.000000   0.000000   0.000000   0.000000
     22       0.000000   0.000000   0.000000   0.000000   0.000000   0.000000
     23       0.000000   0.000000   0.000000   0.000000   0.000000   0.000000
     24       0.000000   0.000000   0.000000   0.000000   0.000000   0.000000
     25       0.000000   0.000000   0.000000   0.000000   0.000000   0.000000
     26       0.000000   0.000000   0.000000   0.000000   0.000000   0.000000
                  6          7          8          9         10         11    
      0      -0.000000   0.000001  -0.000003   0.000003   0.000002  -0.000011
      1       0.151873  -0.213002  -0.063138  -0.090648  -0.100543  -0.084050
      2       0.000001  -0.000002   0.000004  -0.000004  -0.000003   0.000011
      3       0.000001  -0.000002   0.000005  -0.000006  -0.000004   0.000017
      4      -0.279553   0.118971  -0.066888  -0.047877   0.046299   0.085531
      5       0.000001  -0.000003   0.000006  -0.000006  -0.000004   0.000019
      6       0.000001  -0.000003   0.000007  -0.000007  -0.000004   0.000017
      7       0.280066   0.117950  -0.054106   0.056096   0.049436  -0.087874
      8      -0.000001   0.000003  -0.000008   0.000008   0.000005  -0.000020
      9      -0.000000   0.000001  -0.000003   0.000003   0.000002  -0.000009
     10      -0.149411  -0.214896  -0.052610   0.101577  -0.097373   0.082451
     11      -0.000000   0.000001  -0.000002   0.000003   0.000002  -0.000009
     12      -0.000001   0.000002  -0.000004   0.000004   0.000002  -0.000009
     13      -0.001649   0.282247   0.087012  -0.005649   0.016779   0.000724
     14       0.000000  -0.000000   0.000001  -0.000001  -0.000000  -0.000000
     15      -0.000000   0.000002  -0.000004   0.000005   0.000004  -0.000016
     16       0.476836  -0.587206   0.146829   0.429181   0.681678   0.494305
     17       0.000000  -0.000000   0.000000  -0.000000   0.000001  -0.000002
     18       0.000001  -0.000002   0.000003  -0.000004  -0.000002   0.000012
     19      -0.419951  -0.247591   0.733107   0.478115  -0.168863  -0.486155
     20       0.000001  -0.000003   0.000007  -0.000007  -0.000006   0.000023
     21      -0.000002   0.000006  -0.000013   0.000013   0.000005  -0.000014
     22       0.407943  -0.225227   0.641114  -0.576471  -0.194992   0.509355
     23      -0.000003   0.000010  -0.000021   0.000022   0.000012  -0.000043
     24      -0.000001   0.000003  -0.000006   0.000007   0.000004  -0.000018
     25      -0.477359  -0.586413   0.090790  -0.480505   0.666572  -0.480596
     26       0.000001  -0.000003   0.000006  -0.000007  -0.000003   0.000013
                 12         13         14         15         16         17    
      0       0.280604   0.131115  -0.001561  -0.075171   0.056953  -0.327502
      1      -0.000008   0.000003  -0.000000   0.000000  -0.000000  -0.000000
      2      -0.162248   0.033772  -0.003785   0.080634   0.068558   0.048472
      3      -0.207405   0.116012   0.095115   0.009036  -0.027239  -0.212668
      4       0.000014  -0.000006  -0.000000   0.000000  -0.000000  -0.000000
      5      -0.320852   0.012475  -0.016849  -0.046936  -0.100458  -0.188085
      6      -0.208327   0.105501  -0.096198   0.014446   0.028002   0.213428
      7      -0.000035   0.000016   0.000002  -0.000003   0.000003   0.000002
      8       0.167868  -0.249388  -0.012380   0.046097  -0.101307  -0.186714
      9       0.009443  -0.284379  -0.001564  -0.075515  -0.056754   0.327892
     10       0.000015  -0.000006  -0.000000   0.000000  -0.000000  -0.000000
     11       0.111969  -0.111651  -0.007106  -0.079985   0.068828   0.048544
     12       0.087002  -0.047026   0.001605   0.040172  -0.000635  -0.000304
     13       0.000003  -0.000002  -0.000000   0.000000  -0.000000  -0.000000
     14       0.186834   0.290941   0.109203  -0.002019  -0.002302   0.280281
     15       0.293539  -0.032736  -0.054143   0.042343   0.269921  -0.405514
     16       0.000064  -0.000025  -0.000002   0.000001  -0.000001  -0.000000
     17      -0.135143  -0.375771  -0.137512   0.386096   0.600816  -0.049869
     18      -0.346316  -0.345024   0.578630   0.421858   0.085818  -0.215728
     19      -0.000088   0.000036   0.000003  -0.000002   0.000002   0.000001
     20      -0.212985   0.368357  -0.383712  -0.371065  -0.198747  -0.239758
     21       0.171481   0.433407  -0.554628   0.455137  -0.089238   0.206246
     22       0.000252  -0.000113  -0.000020   0.000023  -0.000021  -0.000013
     23       0.460559   0.004080  -0.359455   0.391228  -0.202911  -0.246212
     24       0.169961  -0.215407   0.057973   0.038166  -0.269132   0.405518
     25      -0.000099   0.000045   0.000003  -0.000003   0.000002   0.000001
     26      -0.286633  -0.288568  -0.158729  -0.375938   0.599951  -0.048931
                 18         19         20         21         22         23    
      0      -0.053319   0.184794  -0.101145  -0.021891  -0.094644  -0.051170
      1       0.000000   0.000000   0.000000  -0.000000   0.000000  -0.000000
      2      -0.002519   0.147061   0.171274   0.222285  -0.205472   0.022956
      3      -0.047764  -0.077387   0.324606   0.081314   0.102148   0.011862
      4       0.000000   0.000000   0.000000   0.000000   0.000000   0.000000
      5       0.024290   0.050261  -0.168723  -0.240719   0.052245   0.011775
      6      -0.046918  -0.071114  -0.326501   0.088977  -0.100224   0.012568
      7      -0.000002   0.000000  -0.000002   0.000001  -0.000001   0.000000
      8      -0.025297  -0.048161  -0.164427   0.240675   0.060468  -0.012441
      9      -0.053454   0.183328   0.106632  -0.028547   0.094825  -0.054408
     10       0.000000  -0.000000  -0.000000   0.000000  -0.000000   0.000000
     11       0.003639  -0.148235   0.165199  -0.215213  -0.213490  -0.024201
     12       0.184486  -0.239011  -0.002781   0.002541  -0.000075   0.000270
     13       0.000000  -0.000000   0.000000  -0.000000   0.000000  -0.000000
     14      -0.000124  -0.000018  -0.057946  -0.003257   0.148211  -0.000044
     15      -0.283182  -0.035785  -0.193494  -0.263535   0.212133   0.601279
     16       0.000001  -0.000000   0.000001  -0.000000   0.000000  -0.000000
     17      -0.571182  -0.407726  -0.007386  -0.282630   0.551281  -0.244318
     18       0.201509   0.392183  -0.377628  -0.466300  -0.093278  -0.134096
     19      -0.000001  -0.000000  -0.000001   0.000000  -0.000000  -0.000000
     20      -0.170881  -0.304524   0.379539   0.144733   0.237353  -0.169319
     21       0.201963   0.384863   0.376873  -0.475618   0.079336  -0.141300
     22       0.000015  -0.000000   0.000016  -0.000007   0.000010  -0.000001
     23       0.169266   0.295779   0.385424  -0.159024   0.234701   0.178324
     24      -0.283404  -0.036933   0.190095  -0.257988  -0.222224   0.637300
     25      -0.000001   0.000000  -0.000001   0.000000  -0.000000   0.000000
     26       0.573173   0.405699   0.008037   0.258436   0.566314   0.258692
                  24         25         26    
      0      -0.057290   0.018471  -0.017128
      1       0.000000  -0.000000  -0.000000
      2       0.022638  -0.010337   0.010302
      3       0.011087   0.032378  -0.040337
      4      -0.000000   0.000000   0.000000
      5       0.011297   0.048054  -0.049996
      6      -0.010446   0.033516   0.039396
      7      -0.000000   0.000000   0.000000
      8       0.010642  -0.049428  -0.048649
      9       0.054260   0.018992   0.016640
     10      -0.000000   0.000000   0.000000
     11       0.021283   0.010641   0.010051
     12       0.000010  -0.001412   0.000022
     13       0.000000  -0.000000  -0.000000
     14       0.001367   0.000007   0.000470
     15       0.646691  -0.198084   0.174315
     16       0.000000  -0.000000  -0.000000
     17      -0.261004   0.083293  -0.074639
     18      -0.122720  -0.399453   0.421146
     19      -0.000000   0.000000   0.000000
     20      -0.153052  -0.525800   0.544357
     21       0.115131  -0.410934  -0.409499
     22       0.000000  -0.000002  -0.000001
     23      -0.143483   0.540701   0.529109
     24      -0.610775  -0.203487  -0.169228
     25       0.000000   0.000000   0.000000
     26      -0.246227  -0.085547  -0.072443


-----------
IR SPECTRUM
-----------

 Mode    freq (cm**-1)   T**2         TX         TY         TZ
-------------------------------------------------------------------
   6:       660.59    0.008080  (  0.000351  -0.089885  -0.000468)
   7:       707.00   57.915912  ( -0.000894  -7.610250   0.001209)
   8:       736.87  129.313506  (  0.002955  11.371609  -0.004010)
   9:       764.68    1.048646  ( -0.002675  -1.024024   0.003643)
  10:       830.82   25.019405  ( -0.001017   5.001940   0.001413)
  11:       865.84    0.062530  (  0.002367   0.250027  -0.003363)
  12:       913.28    4.576995  (  0.855652   0.000513  -1.960830)
  13:       914.87   12.719367  ( -0.535111  -0.000251  -3.526049)
  14:      1062.62   76.726957  (  0.165391  -0.000117  -8.757831)
  15:      1077.87   29.147823  (  5.392182   0.000141   0.268697)
  16:      1149.94   27.135376  (  0.024901  -0.000129   5.209103)
  17:      1225.95    5.337865  (  0.001198  -0.000040  -2.310382)
  18:      1291.40    2.198049  ( -1.481460   0.000081   0.057679)
  19:      1389.16    3.554307  (  1.885167  -0.000004   0.021240)
  20:      1461.10    3.471952  (  0.046840   0.000059   1.862729)
  21:      1538.25    1.234071  (  1.109342  -0.000028   0.058589)
  22:      1554.93   26.494373  ( -0.043169   0.000049  -5.147088)
  23:      3243.16   60.127789  ( -7.753129  -0.000010  -0.129508)
  24:      3248.26   29.009441  ( -0.274334   0.000005   5.379050)
  25:      3274.99   56.429146  (  7.511702   0.000000  -0.059044)
  26:      3293.01   13.120428  ( -0.092216  -0.000012  -3.621039)

The first frequency considered to be a vibration is 6
The total number of vibrations considered is 21


--------------------------
THERMOCHEMISTRY AT 298.15K
--------------------------

Temperature         ... 298.15 K
Pressure            ... 1.00 atm
Total Mass          ... 66.08 AMU

Throughout the following assumptions are being made:
  (1) The electronic state is orbitally nondegenerate
  (2) There are no thermally accessible electronically excited states
  (3) Hindered rotations indicated by low frequency modes are not
      treated as such but are treated as vibrations and this may
      cause some error
  (4) All equations used are the standard statistical mechanics
      equations for an ideal gas
  (5) All vibrations are strictly harmonic

freq.     660.59  E(vib)   ...       0.08 
freq.     707.00  E(vib)   ...       0.07 
freq.     736.87  E(vib)   ...       0.06 
freq.     764.68  E(vib)   ...       0.06 
freq.     830.82  E(vib)   ...       0.04 
freq.     865.84  E(vib)   ...       0.04 
freq.     913.28  E(vib)   ...       0.03 
freq.     914.87  E(vib)   ...       0.03 
freq.    1062.62  E(vib)   ...       0.02 
freq.    1077.87  E(vib)   ...       0.02 
freq.    1149.94  E(vib)   ...       0.01 
freq.    1225.95  E(vib)   ...       0.01 
freq.    1291.40  E(vib)   ...       0.01 
freq.    1389.16  E(vib)   ...       0.00 
freq.    1461.10  E(vib)   ...       0.00 
freq.    1538.25  E(vib)   ...       0.00 
freq.    1554.93  E(vib)   ...       0.00 
freq.    3243.16  E(vib)   ...       0.00 
freq.    3248.26  E(vib)   ...       0.00 
freq.    3274.99  E(vib)   ...       0.00 
freq.    3293.01  E(vib)   ...       0.00 

------------
INNER ENERGY
------------

The inner energy is: U= E(el) + E(ZPE) + E(vib) + E(rot) + E(trans)
    E(el)   - is the total energy from the electronic structure calculation
              = E(kin-el) + E(nuc-el) + E(el-el) + E(nuc-nuc)
    E(ZPE)  - the the zero temperature vibrational energy from the frequency calculation
    E(vib)  - the the finite temperature correction to E(ZPE) due to population
              of excited vibrational states
    E(rot)  - is the rotational thermal energy
    E(trans)- is the translational thermal energy

Summary of contributions to the inner energy U:
Electronic energy                ...   -209.21273858 Eh
Zero point energy                ...      0.07108931 Eh      44.61 kcal/mol
Thermal vibrational correction   ...      0.00078605 Eh       0.49 kcal/mol
Thermal rotational correction    ...      0.00141627 Eh       0.89 kcal/mol
Thermal translational correction ...      0.00141627 Eh       0.89 kcal/mol
-----------------------------------------------------------------------
Total thermal energy                   -209.13803068 Eh


Summary of corrections to the electronic energy:
(perhaps to be used in another calculation)
Total thermal correction                  0.00361859 Eh       2.27 kcal/mol
Non-thermal (ZPE) correction              0.07108931 Eh      44.61 kcal/mol
-----------------------------------------------------------------------
Total correction                          0.07470789 Eh      46.88 kcal/mol


--------
ENTHALPY
--------

The enthalpy is H = U + kB*T
                kB is Boltzmann's constant
Total free energy                 ...   -209.13803068 Eh 
Thermal Enthalpy correction       ...      0.00094421 Eh       0.59 kcal/mol
-----------------------------------------------------------------------
Total Enthalpy                    ...   -209.13708647 Eh


Vibrational entropy computed according to the QRRHO of S. Grimme
Chem.Eur.J. 2012 18 9955


-------
ENTROPY
-------

The entropy contributions are T*S = T*(S(el)+S(vib)+S(rot)+S(trans)
     S(el)   - electronic entropy
     S(vib)  - vibrational entropy
     S(rot)  - rotational entropy
     S(trans)- translational entropy
The entropies will be listed as mutliplied by the temperature to get
units of energy

Electronic entropy                ...      0.00000000 Eh      0.00 kcal/mol
Vibrational entropy               ...      0.00098633 Eh      0.62 kcal/mol
Rotational entropy                ...      0.01042388 Eh      6.54 kcal/mol
Translational entropy             ...      0.01828454 Eh     11.47 kcal/mol
-----------------------------------------------------------------------
Final entropy term                ...      0.02969475 Eh     18.63 kcal/mol


CAUTION: The rotational entropy is not quite correctly treated here
         because it includes a symmetry number that is not yet correctly
         implemented in ORCA!
For a nonlinear molecule the correct rotational entropy is:
    S(rot) = R*(ln(qrot/sn)+1.5)
    R    = 8.31441 J/mol/K = 1.987191683e-3 kcal/mol/K
    qrot = 41720.0890237
    sn is the rotational symmetry number. We have assumed 3 here
       if it is different for your molecule then you should correct
       the printed rotational entropy by manually evaluating the equation
       as given above

For convenience we print out the resulting values for sn=1 - 12:
 sn= 1  qrot/sn=   41720.0890 T*S(rot)=     7.19 kcal/mol T*S(tot)=    19.28 kcal/mol
 sn= 2  qrot/sn=   20860.0445 T*S(rot)=     6.78 kcal/mol T*S(tot)=    18.87 kcal/mol
 sn= 3  qrot/sn=   13906.6963 T*S(rot)=     6.54 kcal/mol T*S(tot)=    18.63 kcal/mol
 sn= 4  qrot/sn=   10430.0223 T*S(rot)=     6.37 kcal/mol T*S(tot)=    18.46 kcal/mol
 sn= 5  qrot/sn=    8344.0178 T*S(rot)=     6.24 kcal/mol T*S(tot)=    18.33 kcal/mol
 sn= 6  qrot/sn=    6953.3482 T*S(rot)=     6.13 kcal/mol T*S(tot)=    18.22 kcal/mol
 sn= 7  qrot/sn=    5960.0127 T*S(rot)=     6.04 kcal/mol T*S(tot)=    18.13 kcal/mol
 sn= 8  qrot/sn=    5215.0111 T*S(rot)=     5.96 kcal/mol T*S(tot)=    18.05 kcal/mol
 sn= 9  qrot/sn=    4635.5654 T*S(rot)=     5.89 kcal/mol T*S(tot)=    17.98 kcal/mol
 sn=10  qrot/sn=    4172.0089 T*S(rot)=     5.83 kcal/mol T*S(tot)=    17.92 kcal/mol
 sn=11  qrot/sn=    3792.7354 T*S(rot)=     5.77 kcal/mol T*S(tot)=    17.86 kcal/mol
 sn=12  qrot/sn=    3476.6741 T*S(rot)=     5.72 kcal/mol T*S(tot)=    17.81 kcal/mol


-------------------
GIBBS FREE ENTHALPY
-------------------

The Gibbs free enthalpy is G = H - T*S

Total enthalpy                    ...   -209.13708647 Eh 
Total entropy correction          ...     -0.02969475 Eh    -18.63 kcal/mol
-----------------------------------------------------------------------
Final Gibbs free enthalpy         ...   -209.16678122 Eh

For completeness - the Gibbs free enthalpy minus the electronic energy
G-E(el)                           ...      0.04595735 Eh     28.84 kcal/mol


Total Time for Numerical Frequencies  :       233.782 sec

Timings for individual modules:

Sum of individual times         ...       64.255 sec (=   1.071 min)
GTO integral calculation        ...        3.419 sec (=   0.057 min)   5.3 %
SCF iterations                  ...       44.849 sec (=   0.747 min)  69.8 %
SCF Gradient evaluation         ...       15.853 sec (=   0.264 min)  24.7 %
Geometry relaxation             ...        0.134 sec (=   0.002 min)   0.2 %
                             ****ORCA TERMINATED NORMALLY****
TOTAL RUN TIME: 0 days 0 hours 4 minutes 54 seconds 201 msec
