
                                 *****************
                                 * O   R   C   A *
                                 *****************

           --- An Ab Initio, DFT and Semiempirical electronic structure package ---

                  #######################################################
                  #                        -***-                        #
                  #  Department of molecular theory and spectroscopy    #
                  #              Directorship: Frank Neese              #
                  # Max Planck Institute for Chemical Energy Conversion #
                  #                  D-45470 Muelheim/Ruhr              #
                  #                       Germany                       #
                  #                                                     #
                  #                  All rights reserved                #
                  #                        -***-                        #
                  #######################################################


                         Program Version 4.0.1.2 - RELEASE -


 With contributions from (in alphabetic order):
   Daniel Aravena         : Magnetic Properties
   Michael Atanasov       : Ab Initio Ligand Field Theory
   Ute Becker             : Parallelization
   Martin Brehm           : Molecular dynamics
   Dmytro Bykov           : SCF Hessian
   Vijay G. Chilkuri      : MRCI spin determinant printing
   Dipayan Datta          : RHF DLPNO-CCSD density
   Achintya Kumar Dutta   : EOM-CC, STEOM-CC
   Dmitry Ganyushin       : Spin-Orbit,Spin-Spin,Magnetic field MRCI
   Yang Guo               : DLPNO-NEVPT2, CIM, IAO-localization
   Andreas Hansen         : Spin unrestricted coupled pair/coupled cluster methods
   Lee Huntington         : MR-EOM, pCC
   Robert Izsak           : Overlap fitted RIJCOSX, COSX-SCS-MP3, EOM
   Christian Kollmar      : KDIIS, OOCD, Brueckner-CCSD(T), CCSD density
   Simone Kossmann        : Meta GGA functionals, TD-DFT gradient, OOMP2, MP2 Hessian
   Martin Krupicka        : AUTO-CI
   Dagmar Lenk            : GEPOL surface
   Dimitrios Liakos       : Extrapolation schemes; parallel MDCI
   Dimitrios Manganas     : ROCIS; embedding schemes
   Dimitrios Pantazis     : SARC Basis sets
   Taras Petrenko         : DFT Hessian,TD-DFT gradient, ASA, ECA, R-Raman, ABS, FL, XAS/XES, NRVS
   Peter Pinski           : DLPNO-MP2
   Christoph Reimann      : Effective Core Potentials
   Marius Retegan         : Local ZFS, SOC
   Christoph Riplinger    : Optimizer, TS searches, QM/MM, DLPNO-CCSD(T), (RO)-DLPNO pert. Triples
   Tobias Risthaus        : Range-separated hybrids, TD-DFT gradient, RPA, STAB
   Michael Roemelt        : Restricted open shell CIS
   Masaaki Saitow         : Open-shell DLPNO
   Barbara Sandhoefer     : DKH picture change effects
   Kantharuban Sivalingam : CASSCF convergence, NEVPT2, FIC-MRCI
   Georgi Stoychev        : AutoAux
   Boris Wezisla          : Elementary symmetry handling
   Frank Wennmohs         : Technical directorship


 We gratefully acknowledge several colleagues who have allowed us to
 interface, adapt or use parts of their codes:
   Stefan Grimme, W. Hujo, H. Kruse,             : VdW corrections, initial TS optimization,
                  C. Bannwarth                     DFT functionals, gCP, sTDA/sTD-DF
   Ed Valeev                                     : LibInt (2-el integral package), F12 methods
   Garnet Chan, S. Sharma, J. Yang, R. Olivares  : DMRG
   Ulf Ekstrom                                   : XCFun DFT Library
   Mihaly Kallay                                 : mrcc  (arbitrary order and MRCC methods)
   Andreas Klamt, Michael Diedenhofen            : otool_cosmo (COSMO solvation model)
   Jiri Pittner, Ondrej Demel                    : Mk-CCSD
   Frank Weinhold                                : gennbo (NPA and NBO analysis)
   Christopher J. Cramer and Donald G. Truhlar   : smd solvation model


 Your calculation uses the libint2 library for the computation of 2-el integrals
 For citations please refer to: http://libint.valeyev.net

 This ORCA versions uses:
   CBLAS   interface :  Fast vector & matrix operations
   LAPACKE interface :  Fast linear algebra routines
   SCALAPACK package :  Parallel linear algebra routines


Your calculation utilizes the geometrical counterpoise correction gCP
Please cite in your paper:
H.Kruse, S. Grimme J.Chem.Phys., 136, (2012), 154101 
   

Your calculation utilizes the atom-pairwise dispersion correction
with the Becke-Johnson damping scheme (D3BJ)
Cite in your paper:
S.Grimme, S.Ehrlich, L.Goerigk, J Comput Chem, (2011), 32, 1456–1465 
S.Grimme, J.Antony, S.Ehrlich and H.Krieg, J.Chem.Phys., 132, (2010), 154104 
   

Your calculation employs the composite approach PBEh-3c.
Please cite in your paper:
S. Grimme, J. G. Brandenburg, C. Bannwarth, A. Hansen J.Chem.Phys., 143, (2015), 054107 
   

Your calculation utilizes the basis: def2-mSVP

Your calculation utilizes the auxiliary basis: def2/J
   F. Weigend, Phys. Chem. Chem. Phys. 8, 1057 (2006).

================================================================================
                                        WARNINGS
                       Please study these warnings very carefully!
================================================================================

Warning: TCutStore was < 0. Adjusted to Thresh (uncritical)

WARNING: Split-RI-J cannot be used together with RIJONX
  ===> : Split-RI-J will be disabled

WARNING: Geometry Optimization
  ===> : Switching off AutoStart
         For restart on a previous wavefunction, please use MOREAD

INFO   : the flag for use of LIBINT has been found!

================================================================================
                                       INPUT FILE
================================================================================
NAME = pyrrolate.inp
|  1> # pyrrolate.xyz
|  2> ! PBEh3c Opt Freq
|  3> 
|  4> * xyz -1 1
|  5> C       -1.114681038      0.000000000      0.362861461
|  6> C       -0.708476572      0.000000000     -0.945114313
|  7> C        0.708476572      0.000000000     -0.945114313
|  8> C        1.114681038      0.000000000      0.362861461
|  9> N        0.000000000      0.000000000      1.144164961
| 10> H       -2.102667851      0.000000000      0.791353672
| 11> H       -1.354836716      0.000000000     -1.807280826
| 12> H        1.354836716      0.000000000     -1.807280826
| 13> H        2.102667851      0.000000000      0.791353672
| 14> *
| 15> %pal
| 16>  nprocs 4
| 17> end
| 18> 
| 19>                          ****END OF INPUT****
================================================================================

                       *****************************
                       * Geometry Optimization Run *
                       *****************************

Geometry optimization settings:
Update method            Update   .... BFGS
Choice of coordinates    CoordSys .... Redundant Internals
Initial Hessian          InHess   .... Almoef's Model

Convergence Tolerances:
Energy Change            TolE     ....  5.0000e-06 Eh
Max. Gradient            TolMAXG  ....  3.0000e-04 Eh/bohr
RMS Gradient             TolRMSG  ....  1.0000e-04 Eh/bohr
Max. Displacement        TolMAXD  ....  4.0000e-03 bohr
RMS Displacement         TolRMSD  ....  2.0000e-03 bohr

------------------------------------------------------------------------------
                        ORCA OPTIMIZATION COORDINATE SETUP
------------------------------------------------------------------------------

The optimization will be done in new redundant internal coordinates
Making redundant internal coordinates   ...  (new redundants) done
Evaluating the initial hessian          ...  (Almloef) done
Evaluating the coordinates              ...  done
Calculating the B-matrix                .... done
Calculating the G-matrix                .... done
Diagonalizing the G-matrix              .... done
The first mode is                       ....   17
The number of degrees of freedom        ....   21

    -----------------------------------------------------------------
                    Redundant Internal Coordinates


    -----------------------------------------------------------------
         Definition                    Initial Value    Approx d2E/dq
    -----------------------------------------------------------------
      1. B(C   1,C   0)                  1.3696         0.673420   
      2. B(C   2,C   1)                  1.4170         0.565896   
      3. B(C   3,C   2)                  1.3696         0.673420   
      4. B(N   4,C   3)                  1.3612         0.621978   
      5. B(N   4,C   0)                  1.3612         0.621978   
      6. B(H   5,C   0)                  1.0769         0.377847   
      7. B(H   6,C   1)                  1.0775         0.376953   
      8. B(H   7,C   2)                  1.0775         0.376953   
      9. B(H   8,C   3)                  1.0769         0.377847   
     10. A(C   1,C   0,H   5)          130.6992         0.360836   
     11. A(C   1,C   0,N   4)          107.7747         0.437940   
     12. A(N   4,C   0,H   5)          121.5261         0.353794   
     13. A(C   0,C   1,H   6)          125.8887         0.360690   
     14. A(C   0,C   1,C   2)          107.2527         0.433390   
     15. A(C   2,C   1,H   6)          126.8586         0.350201   
     16. A(C   3,C   2,H   7)          125.8887         0.360690   
     17. A(C   1,C   2,H   7)          126.8586         0.350201   
     18. A(C   1,C   2,C   3)          107.2527         0.433390   
     19. A(N   4,C   3,H   8)          121.5261         0.353794   
     20. A(C   2,C   3,H   8)          130.6992         0.360836   
     21. A(C   2,C   3,N   4)          107.7747         0.437940   
     22. A(C   0,N   4,C   3)          109.9451         0.428900   
     23. D(C   2,C   1,C   0,N   4)      0.0000         0.031741   
     24. D(H   6,C   1,C   0,N   4)    180.0000         0.031741   
     25. D(H   6,C   1,C   0,H   5)      0.0000         0.031741   
     26. D(C   2,C   1,C   0,H   5)    180.0000         0.031741   
     27. D(C   3,C   2,C   1,H   6)    180.0000         0.021954   
     28. D(H   7,C   2,C   1,C   0)    180.0000         0.021954   
     29. D(C   3,C   2,C   1,C   0)      0.0000         0.021954   
     30. D(H   7,C   2,C   1,H   6)      0.0000         0.021954   
     31. D(H   8,C   3,C   2,H   7)      0.0000         0.031741   
     32. D(H   8,C   3,C   2,C   1)    180.0000         0.031741   
     33. D(N   4,C   3,C   2,H   7)    180.0000         0.031741   
     34. D(N   4,C   3,C   2,C   1)      0.0000         0.031741   
     35. D(C   0,N   4,C   3,C   2)      0.0000         0.028396   
     36. D(C   3,N   4,C   0,H   5)    180.0000         0.028396   
     37. D(C   3,N   4,C   0,C   1)      0.0000         0.028396   
     38. D(C   0,N   4,C   3,H   8)    180.0000         0.028396   
    -----------------------------------------------------------------

Number of atoms                         .... 9
Number of degrees of freedom            .... 38

         *************************************************************
         *                GEOMETRY OPTIMIZATION CYCLE   1            *
         *************************************************************
---------------------------------
CARTESIAN COORDINATES (ANGSTROEM)
---------------------------------
  C     -1.114681    0.000000    0.362861
  C     -0.708477    0.000000   -0.945114
  C      0.708477    0.000000   -0.945114
  C      1.114681    0.000000    0.362861
  N      0.000000    0.000000    1.144165
  H     -2.102668    0.000000    0.791354
  H     -1.354837    0.000000   -1.807281
  H      1.354837    0.000000   -1.807281
  H      2.102668    0.000000    0.791354

----------------------------
CARTESIAN COORDINATES (A.U.)
----------------------------
  NO LB      ZA    FRAG     MASS         X           Y           Z
   0 C     6.0000    0    12.011   -2.106442    0.000000    0.685709
   1 C     6.0000    0    12.011   -1.338827    0.000000   -1.786007
   2 C     6.0000    0    12.011    1.338827    0.000000   -1.786007
   3 C     6.0000    0    12.011    2.106442    0.000000    0.685709
   4 N     7.0000    0    14.007    0.000000    0.000000    2.162158
   5 H     1.0000    0     1.008   -3.973466    0.000000    1.495442
   6 H     1.0000    0     1.008   -2.560270    0.000000   -3.415266
   7 H     1.0000    0     1.008    2.560270    0.000000   -3.415266
   8 H     1.0000    0     1.008    3.973466    0.000000    1.495442

--------------------------------
INTERNAL COORDINATES (ANGSTROEM)
--------------------------------
 C      0   0   0     0.000000000000     0.00000000     0.00000000
 C      1   0   0     1.369599464650     0.00000000     0.00000000
 C      2   1   0     1.416953144000   107.25268451     0.00000000
 C      3   2   1     1.369599464650   107.25268451     0.00000000
 N      1   2   3     1.361230684193   107.77474133     0.00000000
 H      1   2   3     1.076904600022   130.69917588   180.00000085
 H      2   1   3     1.077549317614   125.88867935   180.00000000
 H      3   2   1     1.077549317614   126.85863615   180.00000000
 H      4   3   2     1.076904600022   130.69917588   180.00000085

---------------------------
INTERNAL COORDINATES (A.U.)
---------------------------
 C      0   0   0     0.000000000000     0.00000000     0.00000000
 C      1   0   0     2.588167901353     0.00000000     0.00000000
 C      2   1   0     2.677653386759   107.25268451     0.00000000
 C      3   2   1     2.588167901353   107.25268451     0.00000000
 N      1   2   3     2.572353198215   107.77474133     0.00000000
 H      1   2   3     2.035054766402   130.69917588   180.00000085
 H      2   1   3     2.036273106084   125.88867935   180.00000000
 H      3   2   1     2.036273106084   126.85863615   180.00000000
 H      4   3   2     2.035054766402   130.69917588   180.00000085

---------------------
BASIS SET INFORMATION
---------------------
There are 3 groups of distinct atoms

 Group   1 Type C   : 8s4p1d contracted to 4s2p1d pattern {5111/31/1}
 Group   2 Type N   : 8s4p1d contracted to 4s2p1d pattern {5111/31/1}
 Group   3 Type H   : 4s contracted to 2s pattern {31}

Atom   0C    basis set group =>   1
Atom   1C    basis set group =>   1
Atom   2C    basis set group =>   1
Atom   3C    basis set group =>   1
Atom   4N    basis set group =>   2
Atom   5H    basis set group =>   3
Atom   6H    basis set group =>   3
Atom   7H    basis set group =>   3
Atom   8H    basis set group =>   3
-------------------------------
AUXILIARY BASIS SET INFORMATION
-------------------------------
There are 3 groups of distinct atoms

 Group   1 Type C   : 12s5p4d2f1g contracted to 6s4p3d1f1g pattern {711111/2111/211/2/1}
 Group   2 Type N   : 12s5p4d2f1g contracted to 6s4p3d1f1g pattern {711111/2111/211/2/1}
 Group   3 Type H   : 5s2p1d contracted to 3s1p1d pattern {311/2/1}

Atom   0C    basis set group =>   1
Atom   1C    basis set group =>   1
Atom   2C    basis set group =>   1
Atom   3C    basis set group =>   1
Atom   4N    basis set group =>   2
Atom   5H    basis set group =>   3
Atom   6H    basis set group =>   3
Atom   7H    basis set group =>   3
Atom   8H    basis set group =>   3


           ************************************************************
           *        Program running with 4 parallel MPI-processes     *
           *              working on a common directory               *
           ************************************************************
------------------------------------------------------------------------------
                           ORCA GTO INTEGRAL CALCULATION
                           -- RI-GTO INTEGRALS CHOSEN --
------------------------------------------------------------------------------

                         BASIS SET STATISTICS AND STARTUP INFO

Gaussian basis set:
 # of primitive gaussian shells          ...   81
 # of primitive gaussian functions       ...  141
 # of contracted shells                  ...   43
 # of contracted basis functions         ...   83
 Highest angular momentum                ...    2
 Maximum contraction depth               ...    5
Auxiliary gaussian basis set:
 # of primitive gaussian shells          ...  152
 # of primitive gaussian functions       ...  414
 # of contracted shells                  ...   95
 # of contracted aux-basis functions     ...  289
 Highest angular momentum                ...    4
 Maximum contraction depth               ...    7
Ratio of auxiliary to basis functions    ...  3.48
Integral package used                  ... LIBINT
 One Electron integrals                  ... done
 Ordering auxiliary basis shells         ... done
 Integral threshhold             Thresh  ...  2.500e-11
 Primitive cut-off               TCut    ...  2.500e-12
 Pre-screening matrix                    ... done
 Shell pair data                         ... 
 Ordering of the shell pairs             ... done (   0.000 sec) 921 of 946 pairs
 Determination of significant pairs      ... done (   0.000 sec)
 Creation of shell pair data             ... done (   0.000 sec)
 Storage of shell pair data              ... done (   0.000 sec)
 Shell pair data done in (   0.001 sec)
 Computing two index integrals           ... done
 Cholesky decomposition of the V-matrix  ... done


Timings:
 Total evaluation time                   ...   0.816 sec (  0.014 min)
 One electron matrix time                ...   0.029 sec (  0.000 min) =  3.6%
 Schwartz matrix evaluation time         ...   0.189 sec (  0.003 min) = 23.2%
 Two index repulsion integral time       ...   0.116 sec (  0.002 min) = 14.3%
 Cholesky decomposition of V             ...   0.459 sec (  0.008 min) = 56.3%
 Three index repulsion integral time     ...   0.000 sec (  0.000 min) =  0.0%



           ************************************************************
           *        Program running with 4 parallel MPI-processes     *
           *              working on a common directory               *
           ************************************************************
-------------------------------------------------------------------------------
                                 ORCA SCF
-------------------------------------------------------------------------------

------------
SCF SETTINGS
------------
Hamiltonian:
 Density Functional     Method          .... DFT(GTOs)
 Exchange Functional    Exchange        .... PBE
   PBE kappa parameter   XKappa         ....  1.024500
   PBE mue parameter    XMuePBE         ....  0.123457
 Correlation Functional Correlation     .... PBE
   PBE beta parameter  CBetaPBE         ....  0.030000
 LDA part of GGA corr.  LDAOpt          .... PW91-LDA
 Gradients option       PostSCFGGA      .... off
 Hybrid DFT is turned on
   Fraction HF Exchange ScalHFX         ....  0.420000
   Scaling of DF-GGA-X  ScalDFX         ....  0.580000
   Scaling of DF-GGA-C  ScalDFC         ....  1.000000
   Scaling of DF-LDA-C  ScalLDAC        ....  1.000000
   Perturbative correction              ....  0.000000
 RI-approximation to the Coulomb term is turned on
   Number of auxiliary basis functions  .... 289
   RIJ-ON(X) (HFX calculated with O(N)) .... on


General Settings:
 Integral files         IntName         .... pyrrolate
 Hartree-Fock type      HFTyp           .... RHF
 Total Charge           Charge          ....   -1
 Multiplicity           Mult            ....    1
 Number of Electrons    NEL             ....   36
 Basis Dimension        Dim             ....   83
 Nuclear Repulsion      ENuc            ....    152.5052507848 Eh

Convergence Acceleration:
 DIIS                   CNVDIIS         .... on
   Start iteration      DIISMaxIt       ....    12
   Startup error        DIISStart       ....  0.200000
   # of expansion vecs  DIISMaxEq       ....     5
   Bias factor          DIISBfac        ....   1.050
   Max. coefficient     DIISMaxC        ....  10.000
 Newton-Raphson         CNVNR           .... off
 SOSCF                  CNVSOSCF        .... on
   Start iteration      SOSCFMaxIt      ....   150
   Startup grad/error   SOSCFStart      ....  0.003300
 Level Shifting         CNVShift        .... on
   Level shift para.    LevelShift      ....    0.2500
   Turn off err/grad.   ShiftErr        ....    0.0010
 Zerner damping         CNVZerner       .... off
 Static damping         CNVDamp         .... on
   Fraction old density DampFac         ....    0.7000
   Max. Damping (<1)    DampMax         ....    0.9800
   Min. Damping (>=0)   DampMin         ....    0.0000
   Turn off err/grad.   DampErr         ....    0.1000
 Fernandez-Rico         CNVRico         .... off

SCF Procedure:
 Maximum # iterations   MaxIter         ....   125
 SCF integral mode      SCFMode         .... Direct
   Integral package                     .... LIBINT
 Reset frequeny         DirectResetFreq ....    20
 Integral Threshold     Thresh          ....  2.500e-11 Eh
 Primitive CutOff       TCut            ....  2.500e-12 Eh

Convergence Tolerance:
 Convergence Check Mode ConvCheckMode   .... Total+1el-Energy
 Convergence forced     ConvForced      .... 0
 Energy Change          TolE            ....  1.000e-08 Eh
 1-El. energy change                    ....  1.000e-05 Eh
 Orbital Gradient       TolG            ....  1.000e-05
 Orbital Rotation angle TolX            ....  1.000e-05
 DIIS Error             TolErr          ....  5.000e-07


Diagonalization of the overlap matrix:
Smallest eigenvalue                        ... 1.162e-03
Time for diagonalization                   ...    0.953 sec
Threshold for overlap eigenvalues          ... 1.000e-08
Number of eigenvalues below threshold      ... 0
Time for construction of square roots      ...    0.043 sec
Total time needed                          ...    0.997 sec

--------------------------------
INITIAL GUESS: MINIMAL BASIS EHT
--------------------------------
The minimal basis has 29 functions
EHT matrix was diagonalized
Basis set overlap was calculated now projecting the orbitals
Using GuessMode=FMatrix for the initial guess
C*T matrix was formed
Effective Fockian was calculated
Effective Fockian was diagonalized
Initial density was built
                      ------------------
                      INITIAL GUESS DONE
                      ------------------
-------------------
DFT GRID GENERATION
-------------------

General Integration Accuracy     IntAcc      ...  4.340
Radial Grid Type                 RadialGrid  ... Gauss-Chebyshev
Angular Grid (max. acc.)         AngularGrid ... Lebedev-194
Angular grid pruning method      GridPruning ... 3 (G Style)
Weight generation scheme         WeightScheme... Becke
Basis function cutoff            BFCut       ...    1.0000e-11
Integration weight cutoff        WCut        ...    1.0000e-14
Grids for H and He will be reduced by one unit

# of grid points (after initial pruning)     ...  22550 (   0.0 sec)
# of grid points (after weights+screening)   ...  21329 (   0.0 sec)
nearest neighbour list constructed           ...    0.0 sec
Grid point re-assignment to atoms done       ...    0.0 sec
Grid point division into batches done        ...    0.1 sec
Reduced shell lists constructed in    0.1 sec

Total number of grid points                  ...    21329
Total number of batches                      ...      337
Average number of points per batch           ...       63
Average number of grid points per atom       ...     2370
Average number of shells per batch           ...    36.20 (84.18%)
Average number of basis functions per batch  ...    75.73 (91.24%)
Average number of large shells per batch     ...    32.84 (90.72%)
Average number of large basis fcns per batch ...    71.44 (94.33%)
Maximum spatial batch extension              ...   3.45, 22.15,  3.35 au
Average spatial batch extension              ...   0.39,  0.76,  0.39 au

Time for grid setup =    0.349 sec

--------------
SCF ITERATIONS
--------------
ITER       Energy         Delta-E        Max-DP      RMS-DP      [F,P]     Damp
               ***  Starting incremental Fock matrix formation  ***
  0   -208.3315489626   0.000000000000 0.19067534  0.00995777  0.4791038 0.7000
  1   -208.5991523763  -0.267603413694 0.12115722  0.00611295  0.2955086 0.7000
  2   -208.7506579498  -0.151505573574 0.06182368  0.00375676  0.2061961 0.7000
                               ***Turning on DIIS***
  3   -208.8548154821  -0.104157532299 0.05392038  0.00259409  0.1437326 0.7000
  4   -208.9296373289  -0.074821846758 0.04475971  0.00197173  0.1001807 0.7000
  5   -208.9827414728  -0.053104143931 0.10796826  0.00480759  0.0702913 0.0000
                      *** Initiating the SOSCF procedure ***
                           *** Shutting down DIIS ***
                      *** Re-Reading the Fockian *** 
                      *** Removing any level shift *** 
ITER      Energy       Delta-E        Grad      Rot      Max-DP    RMS-DP
  6   -209.10908576  -0.1263442893  0.002453  0.002453  0.003567  0.000200
               *** Restarting incremental Fock matrix formation ***
  7   -209.10915046  -0.0000647025  0.000789  0.001464  0.002961  0.000136
  8   -209.10916058  -0.0000101201  0.000476  0.001039  0.001368  0.000072
  9   -209.10916281  -0.0000022241  0.000169  0.000316  0.000586  0.000028
 10   -209.10916326  -0.0000004529  0.000059  0.000138  0.000204  0.000007
 11   -209.10916325   0.0000000071  0.000066  0.000089  0.000123  0.000004
 12   -209.10916330  -0.0000000447  0.000003  0.000005  0.000008  0.000001
 13   -209.10916330   0.0000000025  0.000004  0.000003  0.000004  0.000000
                 **** Energy Check signals convergence ****
              ***Rediagonalizing the Fockian in SOSCF/NRSCF***

               *****************************************************
               *                     SUCCESS                       *
               *           SCF CONVERGED AFTER  14 CYCLES          *
               *****************************************************


----------------
TOTAL SCF ENERGY
----------------

Total Energy       :         -209.10916330 Eh           -5690.14961 eV

Components:
Nuclear Repulsion  :          152.50525078 Eh            4149.87885 eV
Electronic Energy  :         -361.61441408 Eh           -9840.02846 eV
One Electron Energy:         -592.14670055 Eh          -16113.13090 eV
Two Electron Energy:          230.53228647 Eh            6273.10243 eV

Virial components:
Potential Energy   :         -416.78537030 Eh          -11341.30651 eV
Kinetic Energy     :          207.67620700 Eh            5651.15689 eV
Virial Ratio       :            2.00689995


DFT components:
N(Alpha)           :       17.999527802661 electrons
N(Beta)            :       17.999527802661 electrons
N(Total)           :       35.999055605322 electrons
E(X)               :      -16.189041904521 Eh       
E(C)               :       -1.562416086232 Eh       
E(XC)              :      -17.751457990753 Eh       

---------------
SCF CONVERGENCE
---------------

  Last Energy change         ...   -2.7604e-09  Tolerance :   1.0000e-08
  Last MAX-Density change    ...    6.4689e-07  Tolerance :   1.0000e-07
  Last RMS-Density change    ...    3.6165e-08  Tolerance :   5.0000e-09
  Last Orbital Gradient      ...    2.8583e-07  Tolerance :   1.0000e-05
  Last Orbital Rotation      ...    8.3182e-07  Tolerance :   1.0000e-05

             **** THE GBW FILE WAS UPDATED (pyrrolate.gbw) ****
             **** DENSITY FILE WAS UPDATED (pyrrolate.scfp.tmp) ****
             **** ENERGY FILE WAS UPDATED (pyrrolate.en.tmp) ****
----------------
ORBITAL ENERGIES
----------------

  NO   OCC          E(Eh)            E(eV) 
   0   2.0000     -14.365253      -390.8984 
   1   2.0000     -10.215467      -277.9770 
   2   2.0000     -10.215417      -277.9756 
   3   2.0000     -10.198047      -277.5030 
   4   2.0000     -10.197581      -277.4903 
   5   2.0000      -0.796740       -21.6804 
   6   2.0000      -0.590850       -16.0778 
   7   2.0000      -0.565884       -15.3985 
   8   2.0000      -0.396715       -10.7952 
   9   2.0000      -0.390749       -10.6328 
  10   2.0000      -0.341913        -9.3039 
  11   2.0000      -0.235291        -6.4026 
  12   2.0000      -0.219252        -5.9662 
  13   2.0000      -0.210495        -5.7279 
  14   2.0000      -0.208660        -5.6779 
  15   2.0000      -0.065399        -1.7796 
  16   2.0000      -0.030591        -0.8324 
  17   2.0000      -0.024422        -0.6646 
  18   0.0000       0.328482         8.9384 
  19   0.0000       0.329120         8.9558 
  20   0.0000       0.375756        10.2248 
  21   0.0000       0.414575        11.2812 
  22   0.0000       0.414932        11.2909 
  23   0.0000       0.422045        11.4844 
  24   0.0000       0.473794        12.8926 
  25   0.0000       0.483891        13.1673 
  26   0.0000       0.542757        14.7692 
  27   0.0000       0.577056        15.7025 
  28   0.0000       0.755591        20.5607 
  29   0.0000       0.761225        20.7140 
  30   0.0000       0.791641        21.5416 
  31   0.0000       0.799316        21.7505 
  32   0.0000       0.826396        22.4874 
  33   0.0000       0.851228        23.1631 
  34   0.0000       0.869996        23.6738 
  35   0.0000       0.881134        23.9769 
  36   0.0000       0.891460        24.2579 
  37   0.0000       0.926667        25.2159 
  38   0.0000       0.941078        25.6080 
  39   0.0000       1.021400        27.7937 
  40   0.0000       1.111908        30.2566 
  41   0.0000       1.115774        30.3618 
  42   0.0000       1.157759        31.5042 
  43   0.0000       1.165781        31.7225 
  44   0.0000       1.168275        31.7904 
  45   0.0000       1.213649        33.0251 
  46   0.0000       1.253178        34.1007 
  47   0.0000       1.271491        34.5990 
  48   0.0000       1.341453        36.5028 
  49   0.0000       1.364117        37.1195 
  50   0.0000       1.524638        41.4875 
  51   0.0000       1.573548        42.8184 
  52   0.0000       1.646855        44.8132 
  53   0.0000       1.681874        45.7661 
  54   0.0000       1.683161        45.8012 
  55   0.0000       1.835313        49.9414 
  56   0.0000       1.849358        50.3236 
  57   0.0000       1.889686        51.4210 
  58   0.0000       1.975165        53.7470 
  59   0.0000       2.164193        58.8907 
  60   0.0000       2.282430        62.1081 
  61   0.0000       2.325662        63.2845 
  62   0.0000       2.330831        63.4251 
  63   0.0000       2.408983        65.5517 
  64   0.0000       2.533181        68.9314 
  65   0.0000       2.549788        69.3833 
  66   0.0000       2.578034        70.1519 
  67   0.0000       2.586645        70.3862 
  68   0.0000       2.627005        71.4844 
  69   0.0000       2.694562        73.3228 
  70   0.0000       2.824643        76.8625 
  71   0.0000       2.900171        78.9177 
  72   0.0000       2.909444        79.1700 
  73   0.0000       2.972712        80.8916 
  74   0.0000       3.047592        82.9292 
  75   0.0000       3.306137        89.9646 
  76   0.0000       3.312935        90.1495 
  77   0.0000       3.356936        91.3469 
  78   0.0000      13.618029       370.5654 
  79   0.0000      13.951466       379.6387 
  80   0.0000      14.244794       387.6205 
  81   0.0000      14.553930       396.0326 
  82   0.0000      19.591108       533.1011 

                    ********************************
                    * MULLIKEN POPULATION ANALYSIS *
                    ********************************

-----------------------
MULLIKEN ATOMIC CHARGES
-----------------------
   0 C :   -0.136891
   1 C :   -0.329777
   2 C :   -0.329777
   3 C :   -0.136891
   4 N :   -0.457676
   5 H :    0.104112
   6 H :    0.091393
   7 H :    0.091393
   8 H :    0.104112
Sum of atomic charges:   -1.0000000

--------------------------------
MULLIKEN REDUCED ORBITAL CHARGES
--------------------------------
  0 C s       :     3.147570  s :     3.147570
      pz      :     0.906809  p :     2.931133
      px      :     0.876971
      py      :     1.147354
      dz2     :     0.013823  d :     0.058188
      dxz     :     0.019549
      dyz     :     0.010131
      dx2y2   :     0.010028
      dxy     :     0.004657
  1 C s       :     3.207591  s :     3.207591
      pz      :     0.955409  p :     3.081088
      px      :     0.932577
      py      :     1.193102
      dz2     :     0.010259  d :     0.041098
      dxz     :     0.014078
      dyz     :     0.005010
      dx2y2   :     0.005311
      dxy     :     0.006440
  2 C s       :     3.207591  s :     3.207591
      pz      :     0.955409  p :     3.081088
      px      :     0.932577
      py      :     1.193102
      dz2     :     0.010259  d :     0.041098
      dxz     :     0.014078
      dyz     :     0.005010
      dx2y2   :     0.005311
      dxy     :     0.006440
  3 C s       :     3.147570  s :     3.147570
      pz      :     0.906809  p :     2.931133
      px      :     0.876971
      py      :     1.147354
      dz2     :     0.013823  d :     0.058188
      dxz     :     0.019549
      dyz     :     0.010131
      dx2y2   :     0.010028
      dxy     :     0.004657
  4 N s       :     3.558034  s :     3.558034
      pz      :     1.615602  p :     3.858351
      px      :     0.991091
      py      :     1.251658
      dz2     :     0.005998  d :     0.041291
      dxz     :     0.015925
      dyz     :     0.006104
      dx2y2   :     0.004413
      dxy     :     0.008850
  5 H s       :     0.895888  s :     0.895888
  6 H s       :     0.908607  s :     0.908607
  7 H s       :     0.908607  s :     0.908607
  8 H s       :     0.895888  s :     0.895888


                     *******************************
                     * LOEWDIN POPULATION ANALYSIS *
                     *******************************

----------------------
LOEWDIN ATOMIC CHARGES
----------------------
   0 C :   -0.215872
   1 C :   -0.293175
   2 C :   -0.293175
   3 C :   -0.215872
   4 N :   -0.295066
   5 H :    0.077768
   6 H :    0.078813
   7 H :    0.078813
   8 H :    0.077768

-------------------------------
LOEWDIN REDUCED ORBITAL CHARGES
-------------------------------
  0 C s       :     2.882255  s :     2.882255
      pz      :     1.054311  p :     3.203185
      px      :     1.014585
      py      :     1.134290
      dz2     :     0.036872  d :     0.130432
      dxz     :     0.044833
      dyz     :     0.021701
      dx2y2   :     0.019444
      dxy     :     0.007582
  1 C s       :     2.897211  s :     2.897211
      pz      :     1.066874  p :     3.300663
      px      :     1.061453
      py      :     1.172337
      dz2     :     0.027264  d :     0.095301
      dxz     :     0.032087
      dyz     :     0.010100
      dx2y2   :     0.011925
      dxy     :     0.013925
  2 C s       :     2.897211  s :     2.897211
      pz      :     1.066874  p :     3.300663
      px      :     1.061453
      py      :     1.172337
      dz2     :     0.027264  d :     0.095301
      dxz     :     0.032087
      dyz     :     0.010100
      dx2y2   :     0.011925
      dxy     :     0.013925
  3 C s       :     2.882255  s :     2.882255
      pz      :     1.054311  p :     3.203185
      px      :     1.014585
      py      :     1.134290
      dz2     :     0.036872  d :     0.130432
      dxz     :     0.044833
      dyz     :     0.021701
      dx2y2   :     0.019444
      dxy     :     0.007582
  4 N s       :     3.216537  s :     3.216537
      pz      :     1.601795  p :     3.988587
      px      :     1.135621
      py      :     1.251170
      dz2     :     0.011108  d :     0.089942
      dxz     :     0.037843
      dyz     :     0.007154
      dx2y2   :     0.012027
      dxy     :     0.021811
  5 H s       :     0.922232  s :     0.922232
  6 H s       :     0.921187  s :     0.921187
  7 H s       :     0.921187  s :     0.921187
  8 H s       :     0.922232  s :     0.922232


                      *****************************
                      * MAYER POPULATION ANALYSIS *
                      *****************************

  NA   - Mulliken gross atomic population
  ZA   - Total nuclear charge
  QA   - Mulliken gross atomic charge
  VA   - Mayer's total valence
  BVA  - Mayer's bonded valence
  FA   - Mayer's free valence

  ATOM       NA         ZA         QA         VA         BVA        FA
  0 C      6.1369     6.0000    -0.1369     3.8870     3.8870     0.0000
  1 C      6.3298     6.0000    -0.3298     3.8421     3.8421     0.0000
  2 C      6.3298     6.0000    -0.3298     3.8421     3.8421    -0.0000
  3 C      6.1369     6.0000    -0.1369     3.8870     3.8870    -0.0000
  4 N      7.4577     7.0000    -0.4577     3.0797     3.0797     0.0000
  5 H      0.8959     1.0000     0.1041     0.9422     0.9422    -0.0000
  6 H      0.9086     1.0000     0.0914     0.9433     0.9433    -0.0000
  7 H      0.9086     1.0000     0.0914     0.9433     0.9433     0.0000
  8 H      0.8959     1.0000     0.1041     0.9422     0.9422    -0.0000

  Mayer bond orders larger than 0.1
B(  0-C ,  1-C ) :   1.4316 B(  0-C ,  4-N ) :   1.4744 B(  0-C ,  5-H ) :   0.9464 
B(  1-C ,  2-C ) :   1.4229 B(  1-C ,  6-H ) :   0.9378 B(  2-C ,  3-C ) :   1.4316 
B(  2-C ,  7-H ) :   0.9378 B(  3-C ,  4-N ) :   1.4744 B(  3-C ,  8-H ) :   0.9464 


-------
TIMINGS
-------

Total SCF time: 0 days 0 hours 0 min 11 sec 

Total time                  ....      11.081 sec
Sum of individual times     ....      10.048 sec  ( 90.7%)

Fock matrix formation       ....       9.527 sec  ( 86.0%)
  XC integration            ....       1.133 sec  ( 11.9% of F)
    Basis function eval.    ....       0.366 sec  ( 32.3% of XC)
    Density eval.           ....       0.200 sec  ( 17.6% of XC)
    XC-Functional eval.     ....       0.131 sec  ( 11.5% of XC)
    XC-Potential eval.      ....       0.332 sec  ( 29.3% of XC)
Diagonalization             ....       0.016 sec  (  0.1%)
Density matrix formation    ....       0.008 sec  (  0.1%)
Population analysis         ....       0.018 sec  (  0.2%)
Initial guess               ....       0.051 sec  (  0.5%)
Orbital Transformation      ....       0.000 sec  (  0.0%)
Orbital Orthonormalization  ....       0.000 sec  (  0.0%)
DIIS solution               ....       0.048 sec  (  0.4%)
SOSCF solution              ....       0.030 sec  (  0.3%)
Grid generation             ....       0.349 sec  (  3.1%)


-------------------------------------------------------------------------------
                          DFT DISPERSION CORRECTION                            
                                                                               
                              DFTD3 V3.1  Rev 1                                
                          USING Becke-Johnson damping                          
-------------------------------------------------------------------------------
The PBEh-3c composite method is recognized
Using three-body term ABC
Active option DFTDOPT                   ...         4   

molecular C6(AA) [au] = 967.520586 


            DFT-D V3
 parameters
 s6 scaling factor         :     1.0000 
 a1 scaling factor         :     0.4860 
 s8 scaling factor         :     0.0000 
 a2 scaling factor         :     4.5000 
 Damping factor alpha9(ATM):    16.0000 
 ad hoc parameters k1-k3   :    16.0000     1.3333    -4.0000 

 Edisp/kcal,au: -2.320456464442  -0.003697882363 
 E6   /kcal   :  -2.321967625 
 E8   /kcal   :  -0.000000000 
 E6(ABC)      :   0.001511160 
 % E8         :   0.000000000 
 % E6(ABC)    :  -0.065123408 

-------------------------   ----------------
Dispersion correction           -0.003697882
-------------------------   ----------------

------------------   -----------------
gCP correction             0.012461389
------------------   -----------------

-------------------------   --------------------
FINAL SINGLE POINT ENERGY      -209.100399792510
-------------------------   --------------------



           ************************************************************
           *        Program running with 4 parallel MPI-processes     *
           *              working on a common directory               *
           ************************************************************
------------------------------------------------------------------------------
                         ORCA SCF GRADIENT CALCULATION
------------------------------------------------------------------------------

Gradient of the Kohn-Sham DFT energy:
Kohn-Sham wavefunction type      ... RKS
Hartree-Fock exchange scaling    ...    0.420
Number of operators              ...    1
Number of atoms                  ...    9
Basis set dimensions             ...   83
Integral neglect threshold       ... 2.5e-11
Integral primitive cutoff        ... 2.5e-12

Nuclear repulsion gradient       ... done
One Electron Gradient            ... done
Pre-screening matrix             ... done
Starting the two electron gradient:
Will do only exchange terms
Two electron gradient done
RI-J gradient                    ... done
Exchange-correlation gradient    ... done
Dispersion correction            ... done
gCP correction                   ... done

------------------
CARTESIAN GRADIENT
------------------

   1   C   :   -0.046182839    0.000000000   -0.016872531
   2   C   :   -0.002081360   -0.000000000    0.028017025
   3   C   :    0.002081360   -0.000000000    0.028017026
   4   C   :    0.046182840    0.000000000   -0.016872530
   5   N   :   -0.000000001    0.000000000   -0.033147020
   6   H   :    0.004448049    0.000000000   -0.001559215
   7   H   :    0.001050389   -0.000000000    0.006988229
   8   H   :   -0.001050390    0.000000000    0.006988229
   9   H   :   -0.004448048   -0.000000000   -0.001559214

Difference to translation invariance:
           :    0.0000000000    0.0000000000    0.0000000000

Norm of the cartesian gradient     ...    0.0875024589
RMS gradient                       ...    0.0168398561
MAX gradient                       ...    0.0461828401

-------
TIMINGS
-------

Total SCF gradient time            ...        2.982 sec

One electron gradient       ....       0.123 sec  (  4.1%)
Prescreening matrices       ....       0.027 sec  (  0.9%)
Two electron gradient       ....       1.035 sec  ( 34.7%)
RI-J Coulomb gradient       ....       0.635 sec  ( 21.3%)
XC gradient                 ....       0.557 sec  ( 18.7%)
------------------------------------------------------------------------------
                         ORCA GEOMETRY RELAXATION STEP
------------------------------------------------------------------------------

Reading the OPT-File                    .... done
Getting information on internals        .... done
Copying old internal coords+grads       .... done
Making the new internal coordinates     .... (new redundants).... done
Validating the new internal coordinates .... (new redundants).... done
Calculating the B-matrix                .... done
Calculating the G,G- and P matrices     .... done
Transforming gradient to internals      .... done
Projecting the internal gradient        .... done
Number of atoms                         ....   9
Number of internal coordinates          ....  38
Current Energy                          ....  -209.100399793 Eh
Current gradient norm                   ....     0.087502459 Eh/bohr
Maximum allowed component of the step   ....  0.300
Current trust radius                    ....  0.300
Evaluating the initial hessian          ....  (Almloef) done
Projecting the Hessian                  .... done
Forming the augmented Hessian           .... done
Diagonalizing the augmented Hessian     .... done
Last element of RFO vector              ....  0.986637240
Lowest eigenvalues of augmented Hessian:
 -0.012830611  0.025215686  0.027313030  0.027628609  0.029807874
Length of the computed step             ....  0.165139081
The final length of the internal step   ....  0.165139081
Converting the step to cartesian space:
 Initial RMS(Int)=    0.0267890963
Transforming coordinates:
 Iter   0:  RMS(Cart)=    0.0355352457 RMS(Int)=    2.0387102181
 Iter   1:  RMS(Cart)=    0.0006026561 RMS(Int)=    0.0005256013
 Iter   2:  RMS(Cart)=    0.0000211768 RMS(Int)=    0.0000141051
 Iter   3:  RMS(Cart)=    0.0000005857 RMS(Int)=    0.0000005227
 Iter   4:  RMS(Cart)=    0.0000000207 RMS(Int)=    0.0000000140
done
Storing new coordinates                 .... done

                                .--------------------.
          ----------------------|Geometry convergence|-------------------------
          Item                value                   Tolerance       Converged
          ---------------------------------------------------------------------
          RMS gradient        0.0128423384            0.0001000000      NO
          MAX gradient        0.0307597485            0.0003000000      NO
          RMS step            0.0267890963            0.0020000000      NO
          MAX step            0.0748755429            0.0040000000      NO
          ........................................................
          Max(Bonds)      0.0224      Max(Angles)    4.29
          Max(Dihed)        0.00      Max(Improp)    0.00
          ---------------------------------------------------------------------

The optimization has not yet converged - more geometry cycles are needed


    ---------------------------------------------------------------------------
                         Redundant Internal Coordinates
                            (Angstroem and degrees)

        Definition                    Value    dE/dq     Step     New-Value
    ----------------------------------------------------------------------------
     1. B(C   1,C   0)                1.3696 -0.028726  0.0224    1.3920   
     2. B(C   2,C   1)                1.4170  0.016894 -0.0145    1.4024   
     3. B(C   3,C   2)                1.3696 -0.028726  0.0224    1.3920   
     4. B(N   4,C   3)                1.3612  0.011673 -0.0104    1.3508   
     5. B(N   4,C   0)                1.3612  0.011673 -0.0104    1.3508   
     6. B(H   5,C   0)                1.0769 -0.004701  0.0064    1.0833   
     7. B(H   6,C   1)                1.0775 -0.006221  0.0084    1.0860   
     8. B(H   7,C   2)                1.0775 -0.006221  0.0084    1.0860   
     9. B(H   8,C   3)                1.0769 -0.004701  0.0064    1.0833   
    10. A(C   1,C   0,H   5)          130.70  0.014577   -1.92    128.78   
    11. A(C   1,C   0,N   4)          107.77 -0.028464    3.77    111.55   
    12. A(N   4,C   0,H   5)          121.53  0.013887   -1.85    119.68   
    13. A(C   0,C   1,H   6)          125.89 -0.009954    1.33    127.22   
    14. A(C   0,C   1,C   2)          107.25  0.013084   -1.63    105.62   
    15. A(C   2,C   1,H   6)          126.86 -0.003130    0.29    127.15   
    16. A(C   3,C   2,H   7)          125.89 -0.009954    1.33    127.22   
    17. A(C   1,C   2,H   7)          126.86 -0.003130    0.29    127.15   
    18. A(C   1,C   2,C   3)          107.25  0.013084   -1.63    105.62   
    19. A(N   4,C   3,H   8)          121.53  0.013887   -1.85    119.68   
    20. A(C   2,C   3,H   8)          130.70  0.014577   -1.92    128.78   
    21. A(C   2,C   3,N   4)          107.77 -0.028464    3.77    111.55   
    22. A(C   0,N   4,C   3)          109.95  0.030760   -4.29    105.66   
    23. D(C   2,C   1,C   0,N   4)      0.00 -0.000000    0.00      0.00   
    24. D(H   6,C   1,C   0,N   4)    180.00  0.000000   -0.00    180.00   
    25. D(H   6,C   1,C   0,H   5)      0.00  0.000000   -0.00     -0.00   
    26. D(C   2,C   1,C   0,H   5)    180.00 -0.000000    0.00    180.00   
    27. D(C   3,C   2,C   1,H   6)    180.00 -0.000000    0.00    180.00   
    28. D(H   7,C   2,C   1,C   0)    180.00  0.000000   -0.00    180.00   
    29. D(C   3,C   2,C   1,C   0)      0.00  0.000000   -0.00     -0.00   
    30. D(H   7,C   2,C   1,H   6)      0.00  0.000000   -0.00     -0.00   
    31. D(H   8,C   3,C   2,H   7)      0.00 -0.000000    0.00      0.00   
    32. D(H   8,C   3,C   2,C   1)    180.00 -0.000000   -0.00    180.00   
    33. D(N   4,C   3,C   2,H   7)    180.00 -0.000000    0.00    180.00   
    34. D(N   4,C   3,C   2,C   1)      0.00 -0.000000    0.00      0.00   
    35. D(C   0,N   4,C   3,C   2)      0.00  0.000000   -0.00     -0.00   
    36. D(C   3,N   4,C   0,H   5)    180.00  0.000000   -0.00    180.00   
    37. D(C   3,N   4,C   0,C   1)      0.00  0.000000   -0.00     -0.00   
    38. D(C   0,N   4,C   3,H   8)    180.00 -0.000000    0.00    180.00   
    ----------------------------------------------------------------------------

         *************************************************************
         *                GEOMETRY OPTIMIZATION CYCLE   2            *
         *************************************************************
---------------------------------
CARTESIAN COORDINATES (ANGSTROEM)
---------------------------------
  C     -1.076274   -0.000000    0.374794
  C     -0.701233    0.000000   -0.965723
  C      0.701233    0.000000   -0.965723
  C      1.076274    0.000000    0.374794
  N      0.000000    0.000000    1.191031
  H     -2.072336   -0.000000    0.800632
  H     -1.357079    0.000000   -1.831317
  H      1.357079   -0.000000   -1.831317
  H      2.072336    0.000000    0.800632

----------------------------
CARTESIAN COORDINATES (A.U.)
----------------------------
  NO LB      ZA    FRAG     MASS         X           Y           Z
   0 C     6.0000    0    12.011   -2.033862   -0.000000    0.708258
   1 C     6.0000    0    12.011   -1.325138    0.000000   -1.824952
   2 C     6.0000    0    12.011    1.325138    0.000000   -1.824952
   3 C     6.0000    0    12.011    2.033862    0.000000    0.708258
   4 N     7.0000    0    14.007    0.000000    0.000000    2.250723
   5 H     1.0000    0     1.008   -3.916148   -0.000000    1.512976
   6 H     1.0000    0     1.008   -2.564507    0.000000   -3.460687
   7 H     1.0000    0     1.008    2.564507   -0.000000   -3.460687
   8 H     1.0000    0     1.008    3.916148    0.000000    1.512976

--------------------------------
INTERNAL COORDINATES (ANGSTROEM)
--------------------------------
 C      0   0   0     0.000000000000     0.00000000     0.00000000
 C      1   0   0     1.391991893476     0.00000000     0.00000000
 C      2   1   0     1.402465632688   105.63019931     0.00000000
 C      3   2   1     1.391991892497   105.63019920     0.00000000
 N      4   3   2     1.350780568578   111.54618677     0.00000000
 H      1   2   3     1.083272403727   128.77794562   180.00000000
 H      2   1   3     1.085995700906   127.21919326   179.99999915
 H      3   2   1     1.085995701248   127.15060759   180.00000000
 H      4   3   2     1.083272402193   128.77794554   179.99999915

---------------------------
INTERNAL COORDINATES (A.U.)
---------------------------
 C      0   0   0     0.000000000000     0.00000000     0.00000000
 C      1   0   0     2.630483459307     0.00000000     0.00000000
 C      2   1   0     2.650275958016   105.63019931     0.00000000
 C      3   2   1     2.630483457458   105.63019920     0.00000000
 N      4   3   2     2.552605341635   111.54618677     0.00000000
 H      1   2   3     2.047088171478   128.77794562   180.00000000
 H      2   1   3     2.052234457328   127.21919326   179.99999915
 H      3   2   1     2.052234457975   127.15060759   180.00000000
 H      4   3   2     2.047088168580   128.77794554   179.99999915



           ************************************************************
           *        Program running with 4 parallel MPI-processes     *
           *              working on a common directory               *
           ************************************************************
 One Electron integrals                  ... done
 Pre-screening matrix                    ... done


           ************************************************************
           *        Program running with 4 parallel MPI-processes     *
           *              working on a common directory               *
           ************************************************************

Diagonalization of the overlap matrix:
Smallest eigenvalue                        ... 1.233e-03
Time for diagonalization                   ...    0.002 sec
Threshold for overlap eigenvalues          ... 1.000e-08
Number of eigenvalues below threshold      ... 0
Time for construction of square roots      ...    0.001 sec
Total time needed                          ...    0.003 sec

-------------------
DFT GRID GENERATION
-------------------

General Integration Accuracy     IntAcc      ...  4.340
Radial Grid Type                 RadialGrid  ... Gauss-Chebyshev
Angular Grid (max. acc.)         AngularGrid ... Lebedev-194
Angular grid pruning method      GridPruning ... 3 (G Style)
Weight generation scheme         WeightScheme... Becke
Basis function cutoff            BFCut       ...    1.0000e-11
Integration weight cutoff        WCut        ...    1.0000e-14
Grids for H and He will be reduced by one unit

# of grid points (after initial pruning)     ...  22550 (   0.0 sec)
# of grid points (after weights+screening)   ...  21341 (   0.0 sec)
nearest neighbour list constructed           ...    0.0 sec
Grid point re-assignment to atoms done       ...    0.0 sec
Grid point division into batches done        ...    0.1 sec
Reduced shell lists constructed in    0.1 sec

Total number of grid points                  ...    21341
Total number of batches                      ...      337
Average number of points per batch           ...       63
Average number of grid points per atom       ...     2371
Average number of shells per batch           ...    36.17 (84.13%)
Average number of basis functions per batch  ...    75.71 (91.22%)
Average number of large shells per batch     ...    32.70 (90.39%)
Average number of large basis fcns per batch ...    71.40 (94.30%)
Maximum spatial batch extension              ...   3.36, 22.17,  3.48 au
Average spatial batch extension              ...   0.38,  0.75,  0.40 au

Time for grid setup =    0.158 sec

--------------
SCF ITERATIONS
--------------
ITER       Energy         Delta-E        Max-DP      RMS-DP      [F,P]     Damp
               ***  Starting incremental Fock matrix formation  ***
  0   -209.1145940238   0.000000000000 0.00502525  0.00026816  0.0091620 0.7000
                      *** Initiating the SOSCF procedure ***
                      *** Re-Reading the Fockian *** 
                      *** Removing any level shift *** 
ITER      Energy       Delta-E        Grad      Rot      Max-DP    RMS-DP
  1   -209.11505920  -0.0004651745  0.001717  0.001717  0.014148  0.000811
               *** Restarting incremental Fock matrix formation ***
  2   -209.11624992  -0.0011907250  0.002026  0.004248  0.004741  0.000258
  3   -209.11626949  -0.0000195671  0.001950  0.002183  0.003282  0.000148
  4   -209.11631047  -0.0000409811  0.000294  0.000614  0.000622  0.000044
  5   -209.11631082  -0.0000003484  0.000283  0.000398  0.000400  0.000019
  6   -209.11631184  -0.0000010153  0.000021  0.000039  0.000068  0.000005
  7   -209.11631184  -0.0000000089  0.000016  0.000015  0.000028  0.000002
  8   -209.11631185  -0.0000000049  0.000004  0.000004  0.000005  0.000000
                  ***Gradient check signals convergence***
              ***Rediagonalizing the Fockian in SOSCF/NRSCF***

               *****************************************************
               *                     SUCCESS                       *
               *           SCF CONVERGED AFTER   9 CYCLES          *
               *****************************************************

Total Energy       :         -209.11631185 Eh           -5690.34414 eV
  Last Energy change         ...   -3.0807e-09  Tolerance :   1.0000e-08
  Last MAX-Density change    ...    1.5578e-06  Tolerance :   1.0000e-07
             **** THE GBW FILE WAS UPDATED (pyrrolate.gbw) ****
             **** DENSITY FILE WAS UPDATED (pyrrolate.scfp.tmp) ****
             **** ENERGY FILE WAS UPDATED (pyrrolate.en.tmp) ****
Total SCF time: 0 days 0 hours 0 min 5 sec 


-------------------------------------------------------------------------------
                          DFT DISPERSION CORRECTION                            
                                                                               
                              DFTD3 V3.1  Rev 1                                
                          USING Becke-Johnson damping                          
-------------------------------------------------------------------------------
-------------------------   ----------------
Dispersion correction           -0.003662754
-------------------------   ----------------

------------------   -----------------
gCP correction             0.012406831
------------------   -----------------

-------------------------   --------------------
FINAL SINGLE POINT ENERGY      -209.107567775587
-------------------------   --------------------



           ************************************************************
           *        Program running with 4 parallel MPI-processes     *
           *              working on a common directory               *
           ************************************************************
------------------------------------------------------------------------------
                         ORCA SCF GRADIENT CALCULATION
------------------------------------------------------------------------------

Gradient of the Kohn-Sham DFT energy:
Kohn-Sham wavefunction type      ... RKS
Hartree-Fock exchange scaling    ...    0.420
Number of operators              ...    1
Number of atoms                  ...    9
Basis set dimensions             ...   83
Integral neglect threshold       ... 2.5e-11
Integral primitive cutoff        ... 2.5e-12

Nuclear repulsion gradient       ... done
One Electron Gradient            ... done
Pre-screening matrix             ... done
Starting the two electron gradient:
Will do only exchange terms
Two electron gradient done
RI-J gradient                    ... done
Exchange-correlation gradient    ... done
Dispersion correction            ... done
gCP correction                   ... done

------------------
CARTESIAN GRADIENT
------------------

   1   C   :   -0.009669090   -0.000000000   -0.005428456
   2   C   :    0.008847393    0.000000000    0.005908996
   3   C   :   -0.008847393   -0.000000000    0.005908996
   4   C   :    0.009669089    0.000000000   -0.005428457
   5   N   :   -0.000000000   -0.000000000   -0.001708126
   6   H   :    0.002941345   -0.000000000    0.001450248
   7   H   :   -0.001003789   -0.000000000   -0.001076723
   8   H   :    0.001003789   -0.000000000   -0.001076724
   9   H   :   -0.002941346   -0.000000000    0.001450247

Difference to translation invariance:
           :    0.0000000000    0.0000000000    0.0000000000

Norm of the cartesian gradient     ...    0.0223844826
RMS gradient                       ...    0.0043078957
MAX gradient                       ...    0.0096690896

-------
TIMINGS
-------

Total SCF gradient time            ...        1.929 sec

One electron gradient       ....       0.016 sec  (  0.8%)
Prescreening matrices       ....       0.028 sec  (  1.4%)
Two electron gradient       ....       0.910 sec  ( 47.2%)
RI-J Coulomb gradient       ....       0.226 sec  ( 11.7%)
XC gradient                 ....       0.361 sec  ( 18.7%)
------------------------------------------------------------------------------
                         ORCA GEOMETRY RELAXATION STEP
------------------------------------------------------------------------------

Reading the OPT-File                    .... done
Getting information on internals        .... done
Copying old internal coords+grads       .... done
Making the new internal coordinates     .... (new redundants).... done
Validating the new internal coordinates .... (new redundants).... done
Calculating the B-matrix                .... done
Calculating the G,G- and P matrices     .... done
Transforming gradient to internals      .... done
Projecting the internal gradient        .... done
Number of atoms                         ....   9
Number of internal coordinates          ....  38
Current Energy                          ....  -209.107567776 Eh
Current gradient norm                   ....     0.022384483 Eh/bohr
Maximum allowed component of the step   ....  0.300
Current trust radius                    ....  0.300
Updating the Hessian (BFGS)             .... done
Forming the augmented Hessian           .... done
Diagonalizing the augmented Hessian     .... done
Last element of RFO vector              ....  0.999373982
Lowest eigenvalues of augmented Hessian:
 -0.000453398  0.025215686  0.027313030  0.027628609  0.029807874
Length of the computed step             ....  0.035400735
The final length of the internal step   ....  0.035400735
Converting the step to cartesian space:
 Initial RMS(Int)=    0.0057427575
Transforming coordinates:
 Iter   0:  RMS(Cart)=    0.0052207850 RMS(Int)=    1.7654319947
 Iter   1:  RMS(Cart)=    0.0000341251 RMS(Int)=    0.0000241365
 Iter   2:  RMS(Cart)=    0.0000001319 RMS(Int)=    0.0000001422
 Iter   3:  RMS(Cart)=    0.0000000014 RMS(Int)=    0.0000000010
done
Storing new coordinates                 .... done

                                .--------------------.
          ----------------------|Geometry convergence|-------------------------
          Item                value                   Tolerance       Converged
          ---------------------------------------------------------------------
          Energy change      -0.0071679831            0.0000050000      NO
          RMS gradient        0.0021127990            0.0001000000      NO
          MAX gradient        0.0045871532            0.0003000000      NO
          RMS step            0.0057427575            0.0020000000      NO
          MAX step            0.0139982934            0.0040000000      NO
          ........................................................
          Max(Bonds)      0.0044      Max(Angles)    0.80
          Max(Dihed)        0.00      Max(Improp)    0.00
          ---------------------------------------------------------------------

The optimization has not yet converged - more geometry cycles are needed


    ---------------------------------------------------------------------------
                         Redundant Internal Coordinates
                            (Angstroem and degrees)

        Definition                    Value    dE/dq     Step     New-Value
    ----------------------------------------------------------------------------
     1. B(C   1,C   0)                1.3920 -0.003655  0.0037    1.3957   
     2. B(C   2,C   1)                1.4025 -0.004138  0.0044    1.4069   
     3. B(C   3,C   2)                1.3920 -0.003655  0.0037    1.3957   
     4. B(N   4,C   3)                1.3508  0.001892 -0.0022    1.3486   
     5. B(N   4,C   0)                1.3508  0.001892 -0.0022    1.3486   
     6. B(H   5,C   0)                1.0833 -0.002134  0.0035    1.0868   
     7. B(H   6,C   1)                1.0860  0.001464 -0.0022    1.0838   
     8. B(H   7,C   2)                1.0860  0.001464 -0.0022    1.0838   
     9. B(H   8,C   3)                1.0833 -0.002134  0.0035    1.0868   
    10. A(C   1,C   0,H   5)          128.78  0.004587   -0.80    127.98   
    11. A(C   1,C   0,N   4)          111.55 -0.004078    0.68    112.23   
    12. A(N   4,C   0,H   5)          119.68 -0.000510    0.12    119.80   
    13. A(C   0,C   1,H   6)          127.22 -0.001485    0.23    127.45   
    14. A(C   0,C   1,C   2)          105.63  0.002662   -0.39    105.24   
    15. A(C   2,C   1,H   6)          127.15 -0.001177    0.16    127.32   
    16. A(C   3,C   2,H   7)          127.22 -0.001485    0.23    127.45   
    17. A(C   1,C   2,H   7)          127.15 -0.001177    0.16    127.32   
    18. A(C   1,C   2,C   3)          105.63  0.002662   -0.39    105.24   
    19. A(N   4,C   3,H   8)          119.68 -0.000510    0.12    119.80   
    20. A(C   2,C   3,H   8)          128.78  0.004587   -0.80    127.98   
    21. A(C   2,C   3,N   4)          111.55 -0.004078    0.68    112.23   
    22. A(C   0,N   4,C   3)          105.65  0.002831   -0.58    105.07   
    23. D(C   2,C   1,C   0,N   4)      0.00  0.000000   -0.00     -0.00   
    24. D(H   6,C   1,C   0,N   4)    180.00 -0.000000    0.00    180.00   
    25. D(H   6,C   1,C   0,H   5)     -0.00 -0.000000    0.00      0.00   
    26. D(C   2,C   1,C   0,H   5)   -180.00  0.000000   -0.00   -180.00   
    27. D(C   3,C   2,C   1,H   6)   -180.00  0.000000   -0.00   -180.00   
    28. D(H   7,C   2,C   1,C   0)    180.00 -0.000000    0.00    180.00   
    29. D(C   3,C   2,C   1,C   0)     -0.00 -0.000000    0.00      0.00   
    30. D(H   7,C   2,C   1,H   6)     -0.00  0.000000   -0.00     -0.00   
    31. D(H   8,C   3,C   2,H   7)      0.00 -0.000000    0.00      0.00   
    32. D(H   8,C   3,C   2,C   1)    180.00 -0.000000    0.00    180.00   
    33. D(N   4,C   3,C   2,H   7)   -180.00  0.000000   -0.00   -180.00   
    34. D(N   4,C   3,C   2,C   1)      0.00  0.000000   -0.00     -0.00   
    35. D(C   0,N   4,C   3,C   2)     -0.00 -0.000000    0.00      0.00   
    36. D(C   3,N   4,C   0,H   5)    180.00  0.000000    0.00    180.00   
    37. D(C   3,N   4,C   0,C   1)     -0.00 -0.000000    0.00      0.00   
    38. D(C   0,N   4,C   3,H   8)   -180.00  0.000000   -0.00   -180.00   
    ----------------------------------------------------------------------------

         *************************************************************
         *                GEOMETRY OPTIMIZATION CYCLE   3            *
         *************************************************************
---------------------------------
CARTESIAN COORDINATES (ANGSTROEM)
---------------------------------
  C     -1.070343    0.000000    0.377538
  C     -0.703468   -0.000000   -0.969080
  C      0.703468    0.000000   -0.969080
  C      1.070343   -0.000000    0.377538
  N      0.000000   -0.000000    1.197874
  H     -2.072648   -0.000000    0.797563
  H     -1.360425    0.000000   -1.831055
  H      1.360425   -0.000000   -1.831055
  H      2.072648    0.000000    0.797563

----------------------------
CARTESIAN COORDINATES (A.U.)
----------------------------
  NO LB      ZA    FRAG     MASS         X           Y           Z
   0 C     6.0000    0    12.011   -2.022655    0.000000    0.713443
   1 C     6.0000    0    12.011   -1.329361   -0.000000   -1.831296
   2 C     6.0000    0    12.011    1.329361    0.000000   -1.831296
   3 C     6.0000    0    12.011    2.022655   -0.000000    0.713443
   4 N     7.0000    0    14.007    0.000000   -0.000000    2.263653
   5 H     1.0000    0     1.008   -3.916737   -0.000000    1.507175
   6 H     1.0000    0     1.008   -2.570831    0.000000   -3.460193
   7 H     1.0000    0     1.008    2.570831   -0.000000   -3.460193
   8 H     1.0000    0     1.008    3.916737    0.000000    1.507175

--------------------------------
INTERNAL COORDINATES (ANGSTROEM)
--------------------------------
 C      0   0   0     0.000000000000     0.00000000     0.00000000
 C      1   0   0     1.395699575662     0.00000000     0.00000000
 C      2   1   0     1.406935295549   105.23990853     0.00000000
 C      3   2   1     1.395699575578   105.23990857     0.00000000
 N      4   3   2     1.348549182651   112.22748415     0.00000000
 H      1   2   3     1.086754554101   127.97645457   180.00000000
 H      2   1   3     1.083787010121   127.44713580   180.00000000
 H      3   2   1     1.083787008784   127.31295573   180.00000000
 H      4   3   2     1.086754553808   127.97645451   180.00000085

---------------------------
INTERNAL COORDINATES (A.U.)
---------------------------
 C      0   0   0     0.000000000000     0.00000000     0.00000000
 C      1   0   0     2.637489963231     0.00000000     0.00000000
 C      2   1   0     2.658722396735   105.23990853     0.00000000
 C      3   2   1     2.637489963073   105.23990857     0.00000000
 N      4   3   2     2.548388633334   112.22748415     0.00000000
 H      1   2   3     2.053668482043   127.97645457   180.00000000
 H      2   1   3     2.048060636629   127.44713580   180.00000000
 H      3   2   1     2.048060634104   127.31295573   180.00000000
 H      4   3   2     2.053668481490   127.97645451   180.00000085



           ************************************************************
           *        Program running with 4 parallel MPI-processes     *
           *              working on a common directory               *
           ************************************************************
 One Electron integrals                  ... done
 Pre-screening matrix                    ... done


           ************************************************************
           *        Program running with 4 parallel MPI-processes     *
           *              working on a common directory               *
           ************************************************************

Diagonalization of the overlap matrix:
Smallest eigenvalue                        ... 1.256e-03
Time for diagonalization                   ...    0.002 sec
Threshold for overlap eigenvalues          ... 1.000e-08
Number of eigenvalues below threshold      ... 0
Time for construction of square roots      ...    0.001 sec
Total time needed                          ...    0.003 sec

-------------------
DFT GRID GENERATION
-------------------

General Integration Accuracy     IntAcc      ...  4.340
Radial Grid Type                 RadialGrid  ... Gauss-Chebyshev
Angular Grid (max. acc.)         AngularGrid ... Lebedev-194
Angular grid pruning method      GridPruning ... 3 (G Style)
Weight generation scheme         WeightScheme... Becke
Basis function cutoff            BFCut       ...    1.0000e-11
Integration weight cutoff        WCut        ...    1.0000e-14
Grids for H and He will be reduced by one unit

# of grid points (after initial pruning)     ...  22550 (   0.0 sec)
# of grid points (after weights+screening)   ...  21343 (   0.0 sec)
nearest neighbour list constructed           ...    0.0 sec
Grid point re-assignment to atoms done       ...    0.0 sec
Grid point division into batches done        ...    0.1 sec
Reduced shell lists constructed in    0.1 sec

Total number of grid points                  ...    21343
Total number of batches                      ...      338
Average number of points per batch           ...       63
Average number of grid points per atom       ...     2371
Average number of shells per batch           ...    36.10 (83.96%)
Average number of basis functions per batch  ...    75.64 (91.13%)
Average number of large shells per batch     ...    32.66 (90.47%)
Average number of large basis fcns per batch ...    71.41 (94.40%)
Maximum spatial batch extension              ...   3.36, 22.16,  3.32 au
Average spatial batch extension              ...   0.38,  0.74,  0.39 au

Time for grid setup =    0.131 sec

--------------
SCF ITERATIONS
--------------
ITER       Energy         Delta-E        Max-DP      RMS-DP      [F,P]     Damp
               ***  Starting incremental Fock matrix formation  ***
                      *** Initiating the SOSCF procedure ***
                      *** Re-Reading the Fockian *** 
                      *** Removing any level shift *** 
ITER      Energy       Delta-E        Grad      Rot      Max-DP    RMS-DP
  0   -209.11649030 -209.1164902965  0.001301  0.001301  0.002598  0.000166
               *** Restarting incremental Fock matrix formation ***
  1   -209.11655138  -0.0000610858  0.000633  0.000796  0.001274  0.000080
  2   -209.11655539  -0.0000040054  0.000709  0.000994  0.001183  0.000053
  3   -209.11655938  -0.0000039885  0.000123  0.000223  0.000222  0.000019
  4   -209.11655956  -0.0000001837  0.000067  0.000102  0.000127  0.000006
  5   -209.11655964  -0.0000000804  0.000018  0.000026  0.000035  0.000003
  6   -209.11655965  -0.0000000057  0.000006  0.000006  0.000014  0.000001
  7   -209.11655965  -0.0000000007  0.000003  0.000004  0.000005  0.000000
                 **** Energy Check signals convergence ****
              ***Rediagonalizing the Fockian in SOSCF/NRSCF***

               *****************************************************
               *                     SUCCESS                       *
               *           SCF CONVERGED AFTER   8 CYCLES          *
               *****************************************************

Total Energy       :         -209.11655965 Eh           -5690.35088 eV
  Last Energy change         ...   -2.7248e-09  Tolerance :   1.0000e-08
  Last MAX-Density change    ...    1.0054e-06  Tolerance :   1.0000e-07
             **** THE GBW FILE WAS UPDATED (pyrrolate.gbw) ****
             **** DENSITY FILE WAS UPDATED (pyrrolate.scfp.tmp) ****
             **** ENERGY FILE WAS UPDATED (pyrrolate.en.tmp) ****
Total SCF time: 0 days 0 hours 0 min 5 sec 


-------------------------------------------------------------------------------
                          DFT DISPERSION CORRECTION                            
                                                                               
                              DFTD3 V3.1  Rev 1                                
                          USING Becke-Johnson damping                          
-------------------------------------------------------------------------------
-------------------------   ----------------
Dispersion correction           -0.003655280
-------------------------   ----------------

------------------   -----------------
gCP correction             0.012366484
------------------   -----------------

-------------------------   --------------------
FINAL SINGLE POINT ENERGY      -209.107848446394
-------------------------   --------------------



           ************************************************************
           *        Program running with 4 parallel MPI-processes     *
           *              working on a common directory               *
           ************************************************************
------------------------------------------------------------------------------
                         ORCA SCF GRADIENT CALCULATION
------------------------------------------------------------------------------

Gradient of the Kohn-Sham DFT energy:
Kohn-Sham wavefunction type      ... RKS
Hartree-Fock exchange scaling    ...    0.420
Number of operators              ...    1
Number of atoms                  ...    9
Basis set dimensions             ...   83
Integral neglect threshold       ... 2.5e-11
Integral primitive cutoff        ... 2.5e-12

Nuclear repulsion gradient       ... done
One Electron Gradient            ... done
Pre-screening matrix             ... done
Starting the two electron gradient:
Will do only exchange terms
Two electron gradient done
RI-J gradient                    ... done
Exchange-correlation gradient    ... done
Dispersion correction            ... done
gCP correction                   ... done

------------------
CARTESIAN GRADIENT
------------------

   1   C   :   -0.001935271    0.000000000   -0.002400797
   2   C   :    0.003597899   -0.000000000    0.000343782
   3   C   :   -0.003597899    0.000000000    0.000343781
   4   C   :    0.001935271   -0.000000000   -0.002400796
   5   N   :   -0.000000000    0.000000000    0.001296324
   6   H   :    0.000844988    0.000000000    0.001716176
   7   H   :    0.000023664   -0.000000000   -0.000307323
   8   H   :   -0.000023665    0.000000000   -0.000307323
   9   H   :   -0.000844988    0.000000000    0.001716176

Difference to translation invariance:
           :   -0.0000000000   -0.0000000000   -0.0000000000

Norm of the cartesian gradient     ...    0.0073711139
RMS gradient                       ...    0.0014185715
MAX gradient                       ...    0.0035978990

-------
TIMINGS
-------

Total SCF gradient time            ...        1.930 sec

One electron gradient       ....       0.015 sec  (  0.8%)
Prescreening matrices       ....       0.035 sec  (  1.8%)
Two electron gradient       ....       0.917 sec  ( 47.5%)
RI-J Coulomb gradient       ....       0.230 sec  ( 11.9%)
XC gradient                 ....       0.381 sec  ( 19.8%)
------------------------------------------------------------------------------
                         ORCA GEOMETRY RELAXATION STEP
------------------------------------------------------------------------------

Reading the OPT-File                    .... done
Getting information on internals        .... done
Copying old internal coords+grads       .... done
Making the new internal coordinates     .... (new redundants).... done
Validating the new internal coordinates .... (new redundants).... done
Calculating the B-matrix                .... done
Calculating the G,G- and P matrices     .... done
Transforming gradient to internals      .... done
Projecting the internal gradient        .... done
Number of atoms                         ....   9
Number of internal coordinates          ....  38
Current Energy                          ....  -209.107848446 Eh
Current gradient norm                   ....     0.007371114 Eh/bohr
Maximum allowed component of the step   ....  0.300
Current trust radius                    ....  0.300
Updating the Hessian (BFGS)             .... done
Forming the augmented Hessian           .... done
Diagonalizing the augmented Hessian     .... done
Last element of RFO vector              ....  0.999809275
Lowest eigenvalues of augmented Hessian:
 -0.000089342  0.025215686  0.027313030  0.027628609  0.029807874
Length of the computed step             ....  0.019533516
The final length of the internal step   ....  0.019533516
Converting the step to cartesian space:
 Initial RMS(Int)=    0.0031687547
Transforming coordinates:
 Iter   0:  RMS(Cart)=    0.0039748499 RMS(Int)=    1.4414650504
 Iter   1:  RMS(Cart)=    0.0000164568 RMS(Int)=    0.0000134486
 Iter   2:  RMS(Cart)=    0.0000001087 RMS(Int)=    0.0000000708
 Iter   3:  RMS(Cart)=    0.0000000009 RMS(Int)=    0.0000000007
done
Storing new coordinates                 .... done

                                .--------------------.
          ----------------------|Geometry convergence|-------------------------
          Item                value                   Tolerance       Converged
          ---------------------------------------------------------------------
          Energy change      -0.0002806708            0.0000050000      NO
          RMS gradient        0.0007795961            0.0001000000      NO
          MAX gradient        0.0024112286            0.0003000000      NO
          RMS step            0.0031687547            0.0020000000      NO
          MAX step            0.0099062997            0.0040000000      NO
          ........................................................
          Max(Bonds)      0.0035      Max(Angles)    0.57
          Max(Dihed)        0.00      Max(Improp)    0.00
          ---------------------------------------------------------------------

The optimization has not yet converged - more geometry cycles are needed


    ---------------------------------------------------------------------------
                         Redundant Internal Coordinates
                            (Angstroem and degrees)

[...]
Dipol derivatives                                ... done   (      0.3 sec)

Total SCF Hessian time: 0 days 0 hours 0 min 55 sec 

Writing the Hessian file to the disk             ... done


-----------------------
VIBRATIONAL FREQUENCIES
-----------------------

   0:         0.00 cm**-1
   1:         0.00 cm**-1
   2:         0.00 cm**-1
   3:         0.00 cm**-1
   4:         0.00 cm**-1
   5:         0.00 cm**-1
   6:       650.59 cm**-1
   7:       692.34 cm**-1
   8:       719.49 cm**-1
   9:       731.17 cm**-1
  10:       795.14 cm**-1
  11:       821.04 cm**-1
  12:       908.78 cm**-1
  13:       918.77 cm**-1
  14:      1063.73 cm**-1
  15:      1073.70 cm**-1
  16:      1153.15 cm**-1
  17:      1234.88 cm**-1
  18:      1290.67 cm**-1
  19:      1392.78 cm**-1
  20:      1460.77 cm**-1
  21:      1529.85 cm**-1
  22:      1556.15 cm**-1
  23:      3200.73 cm**-1
  24:      3206.20 cm**-1
  25:      3247.45 cm**-1
  26:      3271.03 cm**-1


------------
NORMAL MODES
------------

These modes are the cartesian displacements weighted by the diagonal matrix
M(i,i)=1/sqrt(m[i]) where m[i] is the mass of the displaced atom
Thus, these vectors are normalized but *not* orthogonal

                  0          1          2          3          4          5    
      0       0.000000   0.000000   0.000000   0.000000   0.000000   0.000000
      1       0.000000   0.000000   0.000000   0.000000   0.000000   0.000000
      2       0.000000   0.000000   0.000000   0.000000   0.000000   0.000000
      3       0.000000   0.000000   0.000000   0.000000   0.000000   0.000000
      4       0.000000   0.000000   0.000000   0.000000   0.000000   0.000000
      5       0.000000   0.000000   0.000000   0.000000   0.000000   0.000000
      6       0.000000   0.000000   0.000000   0.000000   0.000000   0.000000
      7       0.000000   0.000000   0.000000   0.000000   0.000000   0.000000
      8       0.000000   0.000000   0.000000   0.000000   0.000000   0.000000
      9       0.000000   0.000000   0.000000   0.000000   0.000000   0.000000
     10       0.000000   0.000000   0.000000   0.000000   0.000000   0.000000
     11       0.000000   0.000000   0.000000   0.000000   0.000000   0.000000
     12       0.000000   0.000000   0.000000   0.000000   0.000000   0.000000
     13       0.000000   0.000000   0.000000   0.000000   0.000000   0.000000
     14       0.000000   0.000000   0.000000   0.000000   0.000000   0.000000
     15       0.000000   0.000000   0.000000   0.000000   0.000000   0.000000
     16       0.000000   0.000000   0.000000   0.000000   0.000000   0.000000
     17       0.000000   0.000000   0.000000   0.000000   0.000000   0.000000
     18       0.000000   0.000000   0.000000   0.000000   0.000000   0.000000
     19       0.000000   0.000000   0.000000   0.000000   0.000000   0.000000
     20       0.000000   0.000000   0.000000   0.000000   0.000000   0.000000
     21       0.000000   0.000000   0.000000   0.000000   0.000000   0.000000
     22       0.000000   0.000000   0.000000   0.000000   0.000000   0.000000
     23       0.000000   0.000000   0.000000   0.000000   0.000000   0.000000
     24       0.000000   0.000000   0.000000   0.000000   0.000000   0.000000
     25       0.000000   0.000000   0.000000   0.000000   0.000000   0.000000
     26       0.000000   0.000000   0.000000   0.000000   0.000000   0.000000
                  6          7          8          9         10         11    
      0      -0.000000   0.000000  -0.000000   0.000000  -0.000000   0.000000
      1      -0.158406   0.110870   0.158812  -0.096102   0.081509  -0.088196
      2       0.000000  -0.000000  -0.000000   0.000000  -0.000000   0.000000
      3      -0.000000  -0.000000   0.000000   0.000000   0.000000  -0.000000
      4       0.352596  -0.120684   0.012431  -0.029716  -0.024449   0.054416
      5      -0.000000  -0.000000   0.000000  -0.000000   0.000000  -0.000000
      6       0.000000  -0.000000   0.000000   0.000000   0.000000   0.000000
      7      -0.352596  -0.120684   0.012431   0.029716  -0.024449  -0.054416
      8      -0.000000   0.000000  -0.000000  -0.000000  -0.000000  -0.000000
      9       0.000000   0.000000  -0.000000  -0.000000  -0.000000  -0.000000
     10       0.158406   0.110870   0.158812   0.096102   0.081509   0.088196
     11       0.000000   0.000000  -0.000000  -0.000000   0.000000  -0.000000
     12      -0.000000  -0.000000  -0.000000  -0.000000   0.000000   0.000000
     13      -0.000000  -0.110269  -0.227333  -0.000000  -0.003012  -0.000000
     14       0.000000   0.000000   0.000000   0.000000   0.000000   0.000000
     15      -0.000000   0.000000  -0.000000  -0.000000   0.000000  -0.000000
     16      -0.567037   0.245147   0.183353   0.291055  -0.700722   0.578642
     17       0.000000  -0.000000   0.000000  -0.000000   0.000000  -0.000000
     18       0.000000  -0.000000   0.000000  -0.000000  -0.000000   0.000000
     19       0.170449   0.637939  -0.644334   0.636528   0.041748  -0.392981
     20      -0.000000  -0.000000   0.000000   0.000000   0.000000   0.000000
     21      -0.000000  -0.000000   0.000000   0.000000   0.000000   0.000000
     22      -0.170449   0.637939  -0.644334  -0.636528   0.041749   0.392981
     23      -0.000000   0.000000  -0.000000  -0.000000   0.000000   0.000000
     24       0.000000   0.000000  -0.000000  -0.000000  -0.000000  -0.000000
     25       0.567037   0.245147   0.183353  -0.291055  -0.700722  -0.578642
     26       0.000000  -0.000000  -0.000000  -0.000000  -0.000000  -0.000000
                 12         13         14         15         16         17    
      0       0.220125   0.175426  -0.000330  -0.075887  -0.045857   0.324300
      1       0.000000   0.000000  -0.000000   0.000000   0.000000  -0.000000
      2      -0.043535  -0.160097   0.003833   0.083661  -0.069387  -0.042901
      3       0.002566  -0.252068  -0.091829   0.013481   0.034710   0.198922
      4      -0.000000   0.000000   0.000000  -0.000000   0.000000   0.000000
      5      -0.127630  -0.302505   0.017397  -0.042549   0.109941   0.163309
      6      -0.002565  -0.252068   0.091829   0.013481  -0.034710  -0.198922
      7       0.000000   0.000000   0.000000  -0.000000  -0.000000  -0.000000
      8      -0.127632   0.302504   0.017397   0.042549   0.109941   0.163309
      9      -0.220126   0.175424   0.000330  -0.075887   0.045857  -0.324300
     10      -0.000000   0.000000   0.000000   0.000000   0.000000   0.000000
     11      -0.043536   0.160096   0.003833  -0.083661  -0.069387  -0.042900
     12      -0.000000   0.101855  -0.000000   0.037281   0.000000   0.000000
     13       0.000000   0.000000  -0.000000   0.000000   0.000000  -0.000000
     14       0.315992   0.000001  -0.111945  -0.000000  -0.011298  -0.254151
     15       0.086237   0.287552   0.056390   0.039181  -0.261075   0.432395
     16      -0.000000  -0.000000  -0.000000   0.000000  -0.000000   0.000000
     17      -0.370645   0.114572   0.149011   0.375423  -0.605422   0.139390
     18      -0.438757  -0.081984  -0.564249   0.445400  -0.068956   0.226531
     19      -0.000000  -0.000000  -0.000000   0.000000  -0.000000   0.000000
     20       0.214724  -0.425236   0.375798  -0.379071   0.200691   0.191680
     21       0.438757  -0.081980   0.564248   0.445401   0.068955  -0.226532
     22       0.000000  -0.000000   0.000000  -0.000000  -0.000000  -0.000000
     23       0.214721   0.425238   0.375797   0.379073   0.200691   0.191680
     24      -0.086239   0.287551  -0.056390   0.039181   0.261075  -0.432395
     25       0.000000  -0.000000   0.000000   0.000000  -0.000000   0.000000
     26      -0.370644  -0.114574   0.149012  -0.375423  -0.605421   0.139390
                 18         19         20         21         22         23    
      0      -0.041486   0.206350   0.097786  -0.028910  -0.104029  -0.052874
      1       0.000000   0.000000  -0.000000   0.000000  -0.000000   0.000000
      2       0.003064   0.163118  -0.181219   0.216712  -0.208292   0.024676
      3      -0.050600  -0.072662  -0.329026   0.086595   0.113215   0.010290
      4      -0.000000   0.000000  -0.000000  -0.000000   0.000000   0.000000
      5       0.025545   0.050042   0.168555  -0.239531   0.052606   0.009343
      6      -0.050600  -0.072662   0.329026   0.086595  -0.113215   0.010290
      7       0.000000  -0.000000   0.000000  -0.000000  -0.000000   0.000000
      8      -0.025545  -0.050041   0.168555   0.239531   0.052606  -0.009343
      9      -0.041486   0.206350  -0.097786  -0.028910   0.104029  -0.052874
     10       0.000000  -0.000000   0.000000   0.000000  -0.000000   0.000000
     11      -0.003064  -0.163118  -0.181219  -0.216712  -0.208291  -0.024676
     12       0.166779  -0.281315   0.000000   0.007114  -0.000000  -0.000589
     13      -0.000000   0.000000   0.000000   0.000000   0.000000  -0.000000
     14       0.000000  -0.000000   0.070170   0.000000   0.151949   0.000000
     15      -0.274370  -0.022043   0.203629  -0.264503   0.208628   0.628308
     16      -0.000000  -0.000000  -0.000000  -0.000000   0.000000  -0.000000
     17      -0.572801  -0.389288   0.036502  -0.263619   0.552471  -0.258387
     18       0.212867   0.383612   0.369379  -0.472287  -0.094618  -0.116787
     19       0.000000  -0.000000   0.000000  -0.000000  -0.000000  -0.000000
     20      -0.180158  -0.290293  -0.373135   0.157447   0.246903  -0.145699
     21       0.212867   0.383611  -0.369378  -0.472287   0.094619  -0.116787
     22       0.000000  -0.000000   0.000000  -0.000000  -0.000000  -0.000000
     23       0.180158   0.290293  -0.373135  -0.157447   0.246903   0.145699
     24      -0.274370  -0.022043  -0.203629  -0.264503  -0.208628   0.628308
     25       0.000000  -0.000000   0.000000  -0.000000  -0.000000  -0.000000
     26       0.572801   0.389288   0.036502   0.263619   0.552471   0.258387
                  24         25         26    
      0       0.055631   0.016065  -0.015159
      1      -0.000000  -0.000000   0.000000
      2      -0.022433  -0.009160   0.009360
      3      -0.009080   0.033157  -0.039913
      4      -0.000000   0.000000  -0.000000
      5      -0.009440   0.048595  -0.049400
      6       0.009080   0.033157   0.039913
      7       0.000000   0.000000   0.000000
      8      -0.009440  -0.048595  -0.049400
      9      -0.055631   0.016065   0.015159
     10       0.000000  -0.000000  -0.000000
     11      -0.022433   0.009160   0.009360
     12       0.000000  -0.001245   0.000000
     13      -0.000000   0.000000  -0.000000
     14      -0.001327  -0.000000   0.000190
     15      -0.633430  -0.167199   0.150353
     16       0.000000   0.000000  -0.000000
     17       0.258384   0.072093  -0.066131
     18       0.105695  -0.410652   0.418333
     19       0.000000  -0.000000   0.000000
     20       0.130625  -0.542594   0.541911
     21      -0.105695  -0.410652  -0.418333
     22      -0.000000  -0.000000  -0.000000
     23       0.130625   0.542594   0.541911
     24       0.633429  -0.167199  -0.150353
     25      -0.000000   0.000000   0.000000
     26       0.258384  -0.072093  -0.066131


-----------
IR SPECTRUM
-----------

 Mode    freq (cm**-1)   T**2         TX         TY         TZ
-------------------------------------------------------------------
   6:       650.59    0.000000  ( -0.000001  -0.000000   0.000002)
   7:       692.34   74.099704  (  0.000000   8.608119  -0.000001)
   8:       719.49   12.009938  ( -0.000002  -3.465536  -0.000002)
   9:       731.17    0.000000  (  0.000000  -0.000001   0.000002)
  10:       795.14   29.036830  (  0.000003  -5.388583   0.000000)
  11:       821.04    0.000000  (  0.000001   0.000002  -0.000001)
  12:       908.78    8.021675  ( -0.000003   0.000000  -2.832256)
  13:       918.77    0.653187  (  0.808200  -0.000001  -0.000009)
  14:      1063.73   33.934609  ( -0.000005   0.000000   5.825342)
  15:      1073.70   10.617673  (  3.258477   0.000000   0.000007)
  16:      1153.15   12.213897  ( -0.000001  -0.000000  -3.494839)
  17:      1234.88    1.887458  ( -0.000001   0.000000   1.373848)
  18:      1290.67    0.925600  ( -0.962081  -0.000000   0.000000)
  19:      1392.78    2.522425  (  1.588214   0.000000   0.000000)
  20:      1460.77    1.252672  ( -0.000000  -0.000000  -1.119228)
  21:      1529.85    2.453953  (  1.566510   0.000000  -0.000002)
  22:      1556.15   20.181511  ( -0.000001  -0.000000  -4.492384)
  23:      3200.73   94.926365  ( -9.743016   0.000001  -0.000001)
  24:      3206.20   41.417896  (  0.000002   0.000000  -6.435674)
  25:      3247.45   91.011398  (  9.539989   0.000000   0.000001)
  26:      3271.03   40.446714  ( -0.000000  -0.000000  -6.359773)

The first frequency considered to be a vibration is 6
The total number of vibrations considered is 21


--------------------------
THERMOCHEMISTRY AT 298.15K
--------------------------

Temperature         ... 298.15 K
Pressure            ... 1.00 atm
Total Mass          ... 66.08 AMU

Throughout the following assumptions are being made:
  (1) The electronic state is orbitally nondegenerate
  (2) There are no thermally accessible electronically excited states
  (3) Hindered rotations indicated by low frequency modes are not
      treated as such but are treated as vibrations and this may
      cause some error
  (4) All equations used are the standard statistical mechanics
      equations for an ideal gas
  (5) All vibrations are strictly harmonic

freq.     650.59  E(vib)   ...       0.08 
freq.     692.34  E(vib)   ...       0.07 
freq.     719.49  E(vib)   ...       0.07 
freq.     731.17  E(vib)   ...       0.06 
freq.     795.14  E(vib)   ...       0.05 
freq.     821.04  E(vib)   ...       0.05 
freq.     908.78  E(vib)   ...       0.03 
freq.     918.77  E(vib)   ...       0.03 
freq.    1063.73  E(vib)   ...       0.02 
freq.    1073.70  E(vib)   ...       0.02 
freq.    1153.15  E(vib)   ...       0.01 
freq.    1234.88  E(vib)   ...       0.01 
freq.    1290.67  E(vib)   ...       0.01 
freq.    1392.78  E(vib)   ...       0.00 
freq.    1460.77  E(vib)   ...       0.00 
freq.    1529.85  E(vib)   ...       0.00 
freq.    1556.15  E(vib)   ...       0.00 
freq.    3200.73  E(vib)   ...       0.00 
freq.    3206.20  E(vib)   ...       0.00 
freq.    3247.45  E(vib)   ...       0.00 
freq.    3271.03  E(vib)   ...       0.00 

------------
INNER ENERGY
------------

The inner energy is: U= E(el) + E(ZPE) + E(vib) + E(rot) + E(trans)
    E(el)   - is the total energy from the electronic structure calculation
              = E(kin-el) + E(nuc-el) + E(el-el) + E(nuc-nuc)
    E(ZPE)  - the the zero temperature vibrational energy from the frequency calculation
    E(vib)  - the the finite temperature correction to E(ZPE) due to population
              of excited vibrational states
    E(rot)  - is the rotational thermal energy
    E(trans)- is the translational thermal energy

Summary of contributions to the inner energy U:
Electronic energy                ...   -209.10792758 Eh
Zero point energy                ...      0.07043725 Eh      44.20 kcal/mol
Thermal vibrational correction   ...      0.00083520 Eh       0.52 kcal/mol
Thermal rotational correction    ...      0.00141627 Eh       0.89 kcal/mol
Thermal translational correction ...      0.00141627 Eh       0.89 kcal/mol
-----------------------------------------------------------------------
Total thermal energy                   -209.03382259 Eh


Summary of corrections to the electronic energy:
(perhaps to be used in another calculation)
Total thermal correction                  0.00366774 Eh       2.30 kcal/mol
Non-thermal (ZPE) correction              0.07043725 Eh      44.20 kcal/mol
-----------------------------------------------------------------------
Total correction                          0.07410499 Eh      46.50 kcal/mol


--------
ENTHALPY
--------

The enthalpy is H = U + kB*T
                kB is Boltzmann's constant
Total free energy                 ...   -209.03382259 Eh 
Thermal Enthalpy correction       ...      0.00094421 Eh       0.59 kcal/mol
-----------------------------------------------------------------------
Total Enthalpy                    ...   -209.03287838 Eh


Vibrational entropy computed according to the QRRHO of S. Grimme
Chem.Eur.J. 2012 18 9955


-------
ENTROPY
-------

The entropy contributions are T*S = T*(S(el)+S(vib)+S(rot)+S(trans)
     S(el)   - electronic entropy
     S(vib)  - vibrational entropy
     S(rot)  - rotational entropy
     S(trans)- translational entropy
The entropies will be listed as mutliplied by the temperature to get
units of energy

Electronic entropy                ...      0.00000000 Eh      0.00 kcal/mol
Vibrational entropy               ...      0.00105342 Eh      0.66 kcal/mol
Rotational entropy                ...      0.01042217 Eh      6.54 kcal/mol
Translational entropy             ...      0.01828454 Eh     11.47 kcal/mol
-----------------------------------------------------------------------
Final entropy term                ...      0.02976013 Eh     18.67 kcal/mol


CAUTION: The rotational entropy is not quite correctly treated here
         because it includes a symmetry number that is not yet correctly
         implemented in ORCA!
For a nonlinear molecule the correct rotational entropy is:
    S(rot) = R*(ln(qrot/sn)+1.5)
    R    = 8.31441 J/mol/K = 1.987191683e-3 kcal/mol/K
    qrot = 41644.7828881
    sn is the rotational symmetry number. We have assumed 3 here
       if it is different for your molecule then you should correct
       the printed rotational entropy by manually evaluating the equation
       as given above

For convenience we print out the resulting values for sn=1 - 12:
 sn= 1  qrot/sn=   41644.7829 T*S(rot)=     7.19 kcal/mol T*S(tot)=    19.33 kcal/mol
 sn= 2  qrot/sn=   20822.3914 T*S(rot)=     6.78 kcal/mol T*S(tot)=    18.91 kcal/mol
 sn= 3  qrot/sn=   13881.5943 T*S(rot)=     6.54 kcal/mol T*S(tot)=    18.67 kcal/mol
 sn= 4  qrot/sn=   10411.1957 T*S(rot)=     6.37 kcal/mol T*S(tot)=    18.50 kcal/mol
 sn= 5  qrot/sn=    8328.9566 T*S(rot)=     6.24 kcal/mol T*S(tot)=    18.37 kcal/mol
 sn= 6  qrot/sn=    6940.7971 T*S(rot)=     6.13 kcal/mol T*S(tot)=    18.26 kcal/mol
 sn= 7  qrot/sn=    5949.2547 T*S(rot)=     6.04 kcal/mol T*S(tot)=    18.17 kcal/mol
 sn= 8  qrot/sn=    5205.5979 T*S(rot)=     5.96 kcal/mol T*S(tot)=    18.09 kcal/mol
 sn= 9  qrot/sn=    4627.1981 T*S(rot)=     5.89 kcal/mol T*S(tot)=    18.02 kcal/mol
 sn=10  qrot/sn=    4164.4783 T*S(rot)=     5.83 kcal/mol T*S(tot)=    17.96 kcal/mol
 sn=11  qrot/sn=    3785.8894 T*S(rot)=     5.77 kcal/mol T*S(tot)=    17.90 kcal/mol
 sn=12  qrot/sn=    3470.3986 T*S(rot)=     5.72 kcal/mol T*S(tot)=    17.85 kcal/mol


-------------------
GIBBS FREE ENTHALPY
-------------------

The Gibbs free enthalpy is G = H - T*S

Total enthalpy                    ...   -209.03287838 Eh 
Total entropy correction          ...     -0.02976013 Eh    -18.67 kcal/mol
-----------------------------------------------------------------------
Final Gibbs free enthalpy         ...   -209.06263851 Eh

For completeness - the Gibbs free enthalpy minus the electronic energy
G-E(el)                           ...      0.04528907 Eh     28.42 kcal/mol


Timings for individual modules:

Sum of individual times         ...      303.861 sec (=   5.064 min)
GTO integral calculation        ...       43.466 sec (=   0.724 min)  14.3 %
SCF iterations                  ...       77.925 sec (=   1.299 min)  25.6 %
SCF Gradient evaluation         ...       47.322 sec (=   0.789 min)  15.6 %
Geometry relaxation             ...       34.987 sec (=   0.583 min)  11.5 %
Analytical frequency calculation...      100.160 sec (=   1.669 min)  33.0 %
                             ****ORCA TERMINATED NORMALLY****
TOTAL RUN TIME: 0 days 0 hours 5 minutes 43 seconds 322 msec
